Program Version,EnergyPlus, Version 9.3.0-baff08990c, YMD=2025.11.21 15:13
1,5,Environment Title[],Latitude[deg],Longitude[deg],Time Zone[],Elevation[m]
2,8,Day of Simulation[],Month[],Day of Month[],DST Indicator[1=yes 0=no],Hour[],StartMinute[],EndMinute[],DayType
3,5,Cumulative Day of Simulation[],Month[],Day of Month[],DST Indicator[1=yes 0=no],DayType  ! When Daily Report Variables Requested
4,2,Cumulative Days of Simulation[],Month[]  ! When Monthly Report Variables Requested
5,1,Cumulative Days of Simulation[] ! When Run Period Report Variables Requested
6,1,Calendar Year of Simulation[] ! When Annual Report Variables Requested
1043,7,Cooling:EnergyTransfer [J] !Daily [Value,Min,Hour,Minute,Max,Hour,Minute]
46,7,InteriorLights:Electricity [J] !Daily [Value,Min,Hour,Minute,Max,Hour,Minute]
458,7,InteriorEquipment:Electricity [J] !Daily [Value,Min,Hour,Minute,Max,Hour,Minute]
End of Data Dictionary
1,JUNE2015,   1.37, 103.98,   8.00,  16.00
3,1, 6, 1, 0,Monday
46,380160000.0,0.0, 1, 2,2304000.0, 7, 2
458,3028392000.0,1526400.0, 1, 2,48312000.0, 8, 2
1043,3471309960.931034,0.0, 7, 2,95238428.42497836,24,32
3,2, 6, 2, 0,Tuesday
46,380160000.0,0.0, 1, 2,2304000.0, 7, 2
458,3028392000.0,1526400.0, 1, 2,48312000.0, 8, 2
1043,3429594052.1228,0.0, 7, 2,92268504.3950945,24,32
3,3, 6, 3, 0,Wednesday
46,380160000.0,0.0, 1, 2,2304000.0, 7, 2
458,3028392000.0,1526400.0, 1, 2,48312000.0, 8, 2
1043,3579908776.9974677,0.0, 7, 2,95167006.853143,24,32
3,4, 6, 4, 0,Thursday
46,380160000.0,0.0, 1, 2,2304000.0, 7, 2
458,3028392000.0,1526400.0, 1, 2,48312000.0, 8, 2
1043,3628016566.1434237,0.0, 7, 2,76222390.92719589,24,32
3,5, 6, 5, 0,Friday
46,380160000.0,0.0, 1, 2,2304000.0, 7, 2
458,3028392000.0,1526400.0, 1, 2,48312000.0, 8, 2
1043,3430422231.6761739,0.0, 7, 2,96455313.8699146,24,32
3,6, 6, 6, 0,Saturday
46,322560000.0,0.0, 1, 2,2304000.0, 7,52
458,3617856000.0,1526400.0, 1, 2,37886400.0, 7,52
1043,3275217152.231747,0.0, 7, 2,94315735.94796546,24,32
3,7, 6, 7, 0,Sunday
46,322560000.0,0.0, 1, 2,2304000.0, 7,52
458,3617856000.0,1526400.0, 1, 2,37886400.0, 7,52
1043,2498707334.2060387,0.0, 7, 2,84703619.52292437,24,32
3,8, 6, 8, 0,Monday
46,380160000.0,0.0, 1, 2,2304000.0, 7, 2
458,3028392000.0,1526400.0, 1, 2,48312000.0, 8, 2
1043,2198146060.268119,0.0, 7, 2,93775860.91401194,24,32
3,9, 6, 9, 0,Tuesday
46,380160000.0,0.0, 1, 2,2304000.0, 7, 2
458,3028392000.0,1526400.0, 1, 2,48312000.0, 8, 2
1043,2406596740.75821,0.0, 7, 2,79019442.77859845,24,32
3,10, 6,10, 0,Wednesday
46,380160000.0,0.0, 1, 2,2304000.0, 7, 2
458,3028392000.0,1526400.0, 1, 2,48312000.0, 8, 2
1043,2354903277.081456,0.0, 7, 2,96108233.34650806,24,32
3,11, 6,11, 0,Thursday
46,380160000.0,0.0, 1, 2,2304000.0, 7, 2
458,3028392000.0,1526400.0, 1, 2,48312000.0, 8, 2
1043,3086623668.7798578,0.0, 7, 2,72030842.42562048,24,32
3,12, 6,12, 0,Friday
46,380160000.0,0.0, 1, 2,2304000.0, 7, 2
458,3028392000.0,1526400.0, 1, 2,48312000.0, 8, 2
1043,2542240306.0555918,0.0, 7, 2,48058108.08225443,24,32
3,13, 6,13, 0,Saturday
46,322560000.0,0.0, 1, 2,2304000.0, 7,52
458,3617856000.0,1526400.0, 1, 2,37886400.0, 7,52
1043,1705651148.6682943,0.0, 7, 2,93057772.83132075,24,32
3,14, 6,14, 0,Sunday
46,322560000.0,0.0, 1, 2,2304000.0, 7,52
458,3617856000.0,1526400.0, 1, 2,37886400.0, 7,52
1043,2216446793.2267,0.0, 7, 2,60983031.062920708,24,32
3,15, 6,15, 0,Monday
46,380160000.0,0.0, 1, 2,2304000.0, 7, 2
458,3028392000.0,1526400.0, 1, 2,48312000.0, 8, 2
1043,1504958801.8967634,0.0, 7, 2,85695322.94754276,24,32
3,16, 6,16, 0,Tuesday
46,380160000.0,0.0, 1, 2,2304000.0, 7, 2
458,3028392000.0,1526400.0, 1, 2,48312000.0, 8, 2
1043,1858322789.8677126,0.0, 7, 2,81348222.96008414,24,32
3,17, 6,17, 0,Wednesday
46,380160000.0,0.0, 1, 2,2304000.0, 7, 2
458,3028392000.0,1526400.0, 1, 2,48312000.0, 8, 2
1043,1845551481.7520984,0.0, 7, 2,80167975.31527408,24,32
3,18, 6,18, 0,Thursday
46,380160000.0,0.0, 1, 2,2304000.0, 7, 2
458,3028392000.0,1526400.0, 1, 2,48312000.0, 8, 2
1043,2060374549.5096613,0.0, 7, 2,85266357.61165039,24,32
3,19, 6,19, 0,Friday
46,380160000.0,0.0, 1, 2,2304000.0, 7, 2
458,3028392000.0,1526400.0, 1, 2,48312000.0, 8, 2
1043,3073712564.079704,0.0, 7, 2,91928930.7927531,24,32
3,20, 6,20, 0,Saturday
46,322560000.0,0.0, 1, 2,2304000.0, 7,52
458,3617856000.0,1526400.0, 1, 2,37886400.0, 7,52
1043,2952986660.365647,0.0, 7, 2,101205301.82965184,24,32
3,21, 6,21, 0,Sunday
46,322560000.0,0.0, 1, 2,2304000.0, 7,52
458,3617856000.0,1526400.0, 1, 2,37886400.0, 7,52
1043,3358387861.3271028,0.0, 7, 2,97366536.91162826,24,32
3,22, 6,22, 0,Monday
46,380160000.0,0.0, 1, 2,2304000.0, 7, 2
458,3028392000.0,1526400.0, 1, 2,48312000.0, 8, 2
1043,3541002666.6083796,0.0, 7, 2,104564147.65098146,24,32
3,23, 6,23, 0,Tuesday
46,380160000.0,0.0, 1, 2,2304000.0, 7, 2
458,3028392000.0,1526400.0, 1, 2,48312000.0, 8, 2
1043,3879581354.85248,0.0, 7, 2,96683070.46858107,24,32
3,24, 6,24, 0,Wednesday
46,380160000.0,0.0, 1, 2,2304000.0, 7, 2
458,3028392000.0,1526400.0, 1, 2,48312000.0, 8, 2
1043,3714756084.3199217,0.0, 7, 2,91454959.01407254,24,32
3,25, 6,25, 0,Thursday
46,380160000.0,0.0, 1, 2,2304000.0, 7, 2
458,3028392000.0,1526400.0, 1, 2,48312000.0, 8, 2
1043,3295405848.697543,0.0, 7, 2,93895202.7484377,24,32
3,26, 6,26, 0,Friday
46,380160000.0,0.0, 1, 2,2304000.0, 7, 2
458,3028392000.0,1526400.0, 1, 2,48312000.0, 8, 2
1043,3194071541.861231,0.0, 7, 2,91327613.52599168,24,32
3,27, 6,27, 0,Saturday
46,322560000.0,0.0, 1, 2,2304000.0, 7,52
458,3617856000.0,1526400.0, 1, 2,37886400.0, 7,52
1043,3227024194.954734,0.0, 7, 2,96601664.60335095,24,32
3,28, 6,28, 0,Sunday
46,322560000.0,0.0, 1, 2,2304000.0, 7,52
458,3617856000.0,1526400.0, 1, 2,37886400.0, 7,52
1043,3590163504.869509,0.0, 7, 2,93751418.28843794,24,32
3,29, 6,29, 0,Monday
46,380160000.0,0.0, 1, 2,2304000.0, 7, 2
458,3028392000.0,1526400.0, 1, 2,48312000.0, 8, 2
1043,3488292101.850159,0.0, 7, 2,95245754.45053225,24,32
3,30, 6,30, 0,Tuesday
46,380160000.0,0.0, 1, 2,2304000.0, 7, 2
458,3028392000.0,1526400.0, 1, 2,48312000.0, 8, 2
1043,3793732706.518294,0.0, 7, 2,94729032.67327376,24,32
End of Data
 Number of Records Written=          90
