Program Version,EnergyPlus, Version 9.3.0-baff08990c, YMD=2025.10.29 15:45
1,5,Environment Title[],Latitude[deg],Longitude[deg],Time Zone[],Elevation[m]
2,8,Day of Simulation[],Month[],Day of Month[],DST Indicator[1=yes 0=no],Hour[],StartMinute[],EndMinute[],DayType
3,5,Cumulative Day of Simulation[],Month[],Day of Month[],DST Indicator[1=yes 0=no],DayType  ! When Daily Report Variables Requested
4,2,Cumulative Days of Simulation[],Month[]  ! When Monthly Report Variables Requested
5,1,Cumulative Days of Simulation[] ! When Run Period Report Variables Requested
6,1,Calendar Year of Simulation[] ! When Annual Report Variables Requested
7,1,Environment,Site Outdoor Air Drybulb Temperature [C] !Hourly
8,1,Environment,Site Wind Speed [m/s] !Hourly
9,1,MID_3R_NV_LFT LIGHTING NAC ZONES,Lights Electric Energy [J] !Hourly
82,1,TOP_3R_NV_MID LIGHTING NAC ZONES,Lights Electric Energy [J] !Hourly
107,1,TOP_3R_NV_MID2 LIGHTING NAC ZONES,Lights Electric Energy [J] !Hourly
132,1,TOP_3R_NV_LFT LIGHTING NAC ZONES,Lights Electric Energy [J] !Hourly
157,1,MID_3R_NV_MID2 LIGHTING NAC ZONES,Lights Electric Energy [J] !Hourly
182,1,MID_3R_NV_RHT LIGHTING NAC ZONES,Lights Electric Energy [J] !Hourly
207,1,MID_3R_NV_MID LIGHTING NAC ZONES,Lights Electric Energy [J] !Hourly
232,1,TOP_3R_NV_RHT LIGHTING NAC ZONES,Lights Electric Energy [J] !Hourly
257,1,MID_3R_AC_MID LIGHTING 3-R AC ZONES,Lights Electric Energy [J] !Hourly
282,1,MID_3R_AC_LFT LIGHTING 3-R AC ZONES,Lights Electric Energy [J] !Hourly
307,1,MID_3R_AC_RHT LIGHTING 3-R AC ZONES,Lights Electric Energy [J] !Hourly
332,1,TOP_3R_AC_MID LIGHTING 3-R AC ZONES,Lights Electric Energy [J] !Hourly
357,1,TOP_3R_AC_RHT LIGHTING 3-R AC ZONES,Lights Electric Energy [J] !Hourly
382,1,TOP_3R_AC_LFT LIGHTING 3-R AC ZONES,Lights Electric Energy [J] !Hourly
407,1,MID_3R_AC_MID2 LIGHTING 3-R AC ZONES,Lights Electric Energy [J] !Hourly
432,1,TOP_3R_AC_MID2 LIGHTING 3-R AC ZONES,Lights Electric Energy [J] !Hourly
494,1,MID_3R_AC_MID,Zone Electric Equipment Electric Energy [J] !Hourly
508,1,MID_3R_AC_LFT,Zone Electric Equipment Electric Energy [J] !Hourly
522,1,MID_3R_AC_RHT,Zone Electric Equipment Electric Energy [J] !Hourly
536,1,TOP_3R_AC_MID,Zone Electric Equipment Electric Energy [J] !Hourly
550,1,TOP_3R_AC_RHT,Zone Electric Equipment Electric Energy [J] !Hourly
564,1,TOP_3R_AC_LFT,Zone Electric Equipment Electric Energy [J] !Hourly
578,1,MID_3R_AC_MID2,Zone Electric Equipment Electric Energy [J] !Hourly
592,1,TOP_3R_AC_MID2,Zone Electric Equipment Electric Energy [J] !Hourly
606,1,MID_3R_NV_LFT,Zone Electric Equipment Electric Energy [J] !Hourly
620,1,TOP_3R_NV_MID,Zone Electric Equipment Electric Energy [J] !Hourly
634,1,TOP_3R_NV_MID2,Zone Electric Equipment Electric Energy [J] !Hourly
648,1,TOP_3R_NV_LFT,Zone Electric Equipment Electric Energy [J] !Hourly
662,1,MID_3R_NV_MID2,Zone Electric Equipment Electric Energy [J] !Hourly
676,1,MID_3R_NV_RHT,Zone Electric Equipment Electric Energy [J] !Hourly
690,1,MID_3R_NV_MID,Zone Electric Equipment Electric Energy [J] !Hourly
704,1,TOP_3R_NV_RHT,Zone Electric Equipment Electric Energy [J] !Hourly
2018,1,TOP_3R_AC_MID2 IDEAL LOADS AIR SYSTEM,Zone Ideal Loads Supply Air Sensible Cooling Energy [J] !Hourly
2019,9,TOP_3R_AC_MID2 IDEAL LOADS AIR SYSTEM,Zone Ideal Loads Supply Air Sensible Cooling Energy [J] !Monthly [Value,Min,Day,Hour,Minute,Max,Day,Hour,Minute]
2069,1,TOP_3R_AC_MID2 IDEAL LOADS AIR SYSTEM,Zone Ideal Loads Zone Total Cooling Energy [J] !Hourly
2071,1,TOP_3R_AC_LFT IDEAL LOADS AIR SYSTEM,Zone Ideal Loads Supply Air Sensible Cooling Energy [J] !Hourly
2072,9,TOP_3R_AC_LFT IDEAL LOADS AIR SYSTEM,Zone Ideal Loads Supply Air Sensible Cooling Energy [J] !Monthly [Value,Min,Day,Hour,Minute,Max,Day,Hour,Minute]
2074,1,TOP_3R_AC_LFT IDEAL LOADS AIR SYSTEM,Zone Ideal Loads Zone Total Cooling Energy [J] !Hourly
2076,1,TOP_3R_AC_MID IDEAL LOADS AIR SYSTEM,Zone Ideal Loads Supply Air Sensible Cooling Energy [J] !Hourly
2077,9,TOP_3R_AC_MID IDEAL LOADS AIR SYSTEM,Zone Ideal Loads Supply Air Sensible Cooling Energy [J] !Monthly [Value,Min,Day,Hour,Minute,Max,Day,Hour,Minute]
2079,1,TOP_3R_AC_MID IDEAL LOADS AIR SYSTEM,Zone Ideal Loads Zone Total Cooling Energy [J] !Hourly
2081,1,TOP_3R_AC_RHT IDEAL LOADS AIR SYSTEM,Zone Ideal Loads Supply Air Sensible Cooling Energy [J] !Hourly
2082,9,TOP_3R_AC_RHT IDEAL LOADS AIR SYSTEM,Zone Ideal Loads Supply Air Sensible Cooling Energy [J] !Monthly [Value,Min,Day,Hour,Minute,Max,Day,Hour,Minute]
2084,1,TOP_3R_AC_RHT IDEAL LOADS AIR SYSTEM,Zone Ideal Loads Zone Total Cooling Energy [J] !Hourly
2086,1,MID_3R_AC_MID2 IDEAL LOADS AIR SYSTEM,Zone Ideal Loads Supply Air Sensible Cooling Energy [J] !Hourly
2087,9,MID_3R_AC_MID2 IDEAL LOADS AIR SYSTEM,Zone Ideal Loads Supply Air Sensible Cooling Energy [J] !Monthly [Value,Min,Day,Hour,Minute,Max,Day,Hour,Minute]
2089,1,MID_3R_AC_MID2 IDEAL LOADS AIR SYSTEM,Zone Ideal Loads Zone Total Cooling Energy [J] !Hourly
2091,1,MID_3R_AC_LFT IDEAL LOADS AIR SYSTEM,Zone Ideal Loads Supply Air Sensible Cooling Energy [J] !Hourly
2092,9,MID_3R_AC_LFT IDEAL LOADS AIR SYSTEM,Zone Ideal Loads Supply Air Sensible Cooling Energy [J] !Monthly [Value,Min,Day,Hour,Minute,Max,Day,Hour,Minute]
2094,1,MID_3R_AC_LFT IDEAL LOADS AIR SYSTEM,Zone Ideal Loads Zone Total Cooling Energy [J] !Hourly
2096,1,MID_3R_AC_MID IDEAL LOADS AIR SYSTEM,Zone Ideal Loads Supply Air Sensible Cooling Energy [J] !Hourly
2097,9,MID_3R_AC_MID IDEAL LOADS AIR SYSTEM,Zone Ideal Loads Supply Air Sensible Cooling Energy [J] !Monthly [Value,Min,Day,Hour,Minute,Max,Day,Hour,Minute]
2099,1,MID_3R_AC_MID IDEAL LOADS AIR SYSTEM,Zone Ideal Loads Zone Total Cooling Energy [J] !Hourly
2101,1,MID_3R_AC_RHT IDEAL LOADS AIR SYSTEM,Zone Ideal Loads Supply Air Sensible Cooling Energy [J] !Hourly
2102,9,MID_3R_AC_RHT IDEAL LOADS AIR SYSTEM,Zone Ideal Loads Supply Air Sensible Cooling Energy [J] !Monthly [Value,Min,Day,Hour,Minute,Max,Day,Hour,Minute]
2104,1,MID_3R_AC_RHT IDEAL LOADS AIR SYSTEM,Zone Ideal Loads Zone Total Cooling Energy [J] !Hourly
End of Data Dictionary
1,JUNE2015,   1.37, 103.98,   8.00,  16.00
2,1, 6, 1, 0, 1, 0.00,60.00,Monday
7,30.655452168999998
8,0.4941674630333333
9,0.0
82,0.0
107,0.0
132,0.0
157,0.0
182,0.0
207,0.0
232,0.0
257,0.0
282,0.0
307,0.0
332,0.0
357,0.0
382,0.0
407,0.0
432,0.0
494,0.0
508,0.0
522,0.0
536,0.0
550,0.0
564,0.0
578,0.0
592,0.0
606,381600.0
620,381600.0
634,381600.0
648,381600.0
662,381600.0
676,381600.0
690,381600.0
704,381600.0
2018,32829399.6034452
2069,44352933.373343158
2071,7323896.672803111
2074,9628075.69071323
2076,25815249.86202143
2079,35513855.061424549
2081,5859974.028031318
2084,8326487.707096999
2086,245027885.90444268
2089,355452333.24180468
2091,55025986.22370748
2094,77152165.26817854
2096,188699048.38104204
2099,281186810.81578096
2101,42653684.91247156
2104,65676614.20773447
2,1, 6, 1, 0, 2, 0.00,60.00,Monday
7,31.289303839833335
8,0.2523580967
9,0.0
82,0.0
107,0.0
132,0.0
157,0.0
182,0.0
207,0.0
232,0.0
257,0.0
282,0.0
307,0.0
332,0.0
357,0.0
382,0.0
407,0.0
432,0.0
494,0.0
508,0.0
522,0.0
536,0.0
550,0.0
564,0.0
578,0.0
592,0.0
606,381600.0
620,381600.0
634,381600.0
648,381600.0
662,381600.0
676,381600.0
690,381600.0
704,381600.0
2018,29879138.860542768
2069,39822655.86094362
2071,6757766.432567441
2074,8824198.360042295
2076,23672918.763317888
2079,31794533.555470524
2081,5384106.200075046
2084,7392249.49524069
2086,226578614.01499937
2089,314511824.08973196
2091,51607452.02537493
2094,69910116.29409525
2096,176048587.75392349
2099,247781408.463687
2101,39968655.9406307
2104,57733706.901758927
2,1, 6, 1, 0, 3, 0.00,60.00,Monday
7,31.693275474333338
8,0.13936496188333334
9,0.0
82,0.0
107,0.0
132,0.0
157,0.0
182,0.0
207,0.0
232,0.0
257,0.0
282,0.0
307,0.0
332,0.0
357,0.0
382,0.0
407,0.0
432,0.0
494,0.0
508,0.0
522,0.0
536,0.0
550,0.0
564,0.0
578,0.0
592,0.0
606,381600.0
620,381600.0
634,381600.0
648,381600.0
662,381600.0
676,381600.0
690,381600.0
704,381600.0
2018,27468050.50497534
2069,38236871.51460783
2071,6304446.45947083
2074,8550626.942990389
2076,21871858.957429079
2079,30669911.055236706
2081,4994447.040508044
2084,7166755.911846521
2086,211327055.5583214
2089,306330446.37197837
2091,48862869.594668868
2094,68743216.67926017
2096,165238141.65355689
2099,242613520.52212999
2101,37714518.730365168
2104,56791058.253311719
2,1, 6, 1, 0, 4, 0.00,60.00,Monday
7,31.415476577
8,0.13743779001666668
9,0.0
82,0.0
107,0.0
132,0.0
157,0.0
182,0.0
207,0.0
232,0.0
257,0.0
282,0.0
307,0.0
332,0.0
357,0.0
382,0.0
407,0.0
432,0.0
494,0.0
508,0.0
522,0.0
536,0.0
550,0.0
564,0.0
578,0.0
592,0.0
606,381600.0
620,381600.0
634,381600.0
648,381600.0
662,381600.0
676,381600.0
690,381600.0
704,381600.0
2018,25228489.08982762
2069,36045845.0837588
2071,5866496.544928172
2074,8125413.887882855
2076,20149112.99541896
2079,28987302.957016045
2081,4613861.4922624439
2084,6796966.544280138
2086,196023137.5290335
2089,291514697.9707779
2091,45962470.65971985
2094,65974128.84387673
2096,153977554.21916185
2099,231792791.65580628
2101,35233727.37356742
2104,54417246.292940709
2,1, 6, 1, 0, 5, 0.00,60.00,Monday
7,31.023394761499998
8,0.14585648828333334
9,0.0
82,0.0
107,0.0
132,0.0
157,0.0
182,0.0
207,0.0
232,0.0
257,0.0
282,0.0
307,0.0
332,0.0
357,0.0
382,0.0
407,0.0
432,0.0
494,0.0
508,0.0
522,0.0
536,0.0
550,0.0
564,0.0
578,0.0
592,0.0
606,381600.0
620,381600.0
634,381600.0
648,381600.0
662,381600.0
676,381600.0
690,381600.0
704,381600.0
2018,23245154.192145427
2069,34006590.053437639
2071,5476278.23096216
2074,7731756.037715301
2076,18625292.684789089
2079,27425248.435198893
2081,4272319.513120068
2084,6444148.877934394
2086,182299830.39158134
2089,277379063.7266522
2091,43372278.50099222
2094,63381862.618608418
2096,143875002.66897405
2099,221422760.5729331
2101,32968614.0346185
2104,52076031.20085088
2,1, 6, 1, 0, 6, 0.00,60.00,Monday
7,31.14932337216667
8,0.1305405427
9,0.0
82,0.0
107,0.0
132,0.0
157,0.0
182,0.0
207,0.0
232,0.0
257,0.0
282,0.0
307,0.0
332,0.0
357,0.0
382,0.0
407,0.0
432,0.0
494,0.0
508,0.0
522,0.0
536,0.0
550,0.0
564,0.0
578,0.0
592,0.0
606,381600.0
620,381600.0
634,381600.0
648,381600.0
662,381600.0
676,381600.0
690,381600.0
704,381600.0
2018,21682794.874441454
2069,32189805.61244692
2071,5165858.512773123
2074,7366110.73548266
2076,17434426.217040484
2079,26026019.020488077
2081,4008130.3721761119
2084,6131116.909558322
2086,171105628.08222787
2089,263910339.7479862
2091,41248781.084611799
2094,60772155.807177718
2096,135738516.03147433
2099,211480663.11082579
2101,31143991.793495109
2104,49814520.83588504
2,1, 6, 1, 0, 7, 0.00,60.00,Monday
7,29.88794638966667
8,0.18774712116666665
9,288000.0
82,288000.0
107,288000.0
132,288000.0
157,288000.0
182,288000.0
207,288000.0
232,288000.0
257,288000.0
282,288000.0
307,288000.0
332,288000.0
357,288000.0
382,288000.0
407,288000.0
432,288000.0
494,0.0
508,0.0
522,0.0
536,0.0
550,0.0
564,0.0
578,0.0
592,0.0
606,1290600.0
620,1290600.0
634,1290600.0
648,1290600.0
662,1290600.0
676,1290600.0
690,1290600.0
704,1290600.0
2018,0.0
2069,0.0
2071,0.0
2074,0.0
2076,0.0
2079,0.0
2081,0.0
2084,0.0
2086,0.0
2089,0.0
2091,0.0
2094,0.0
2096,0.0
2099,0.0
2101,0.0
2104,0.0
2,1, 6, 1, 0, 8, 0.00,60.00,Monday
7,28.91333333333333
8,0.30926038496666666
9,0.0
82,0.0
107,0.0
132,0.0
157,0.0
182,0.0
207,0.0
232,0.0
257,0.0
282,0.0
307,0.0
332,0.0
357,0.0
382,0.0
407,0.0
432,0.0
494,0.0
508,0.0
522,0.0
536,0.0
550,0.0
564,0.0
578,0.0
592,0.0
606,2290800.0
620,2290800.0
634,2290800.0
648,2290800.0
662,2290800.0
676,2290800.0
690,2290800.0
704,2290800.0
2018,0.0
2069,0.0
2071,0.0
2074,0.0
2076,0.0
2079,0.0
2081,0.0
2084,0.0
2086,0.0
2089,0.0
2091,0.0
2094,0.0
2096,0.0
2099,0.0
2101,0.0
2104,0.0
2,1, 6, 1, 0, 9, 0.00,60.00,Monday
7,29.919999999999999
8,0.4374680353666666
9,0.0
82,0.0
107,0.0
132,0.0
157,0.0
182,0.0
207,0.0
232,0.0
257,0.0
282,0.0
307,0.0
332,0.0
357,0.0
382,0.0
407,0.0
432,0.0
494,280800.0
508,280800.0
522,280800.0
536,280800.0
550,280800.0
564,280800.0
578,280800.0
592,280800.0
606,1216800.0
620,1216800.0
634,1216800.0
648,1216800.0
662,1216800.0
676,1216800.0
690,1216800.0
704,1216800.0
2018,0.0
2069,0.0
2071,0.0
2074,0.0
2076,0.0
2079,0.0
2081,0.0
2084,0.0
2086,0.0
2089,0.0
2091,0.0
2094,0.0
2096,0.0
2099,0.0
2101,0.0
2104,0.0
2,1, 6, 1, 0,10, 0.00,60.00,Monday
7,30.964999999999998
8,0.4265135839166666
9,0.0
82,0.0
107,0.0
132,0.0
157,0.0
182,0.0
207,0.0
232,0.0
257,0.0
282,0.0
307,0.0
332,0.0
357,0.0
382,0.0
407,0.0
432,0.0
494,280800.0
508,280800.0
522,280800.0
536,280800.0
550,280800.0
564,280800.0
578,280800.0
592,280800.0
606,1015200.0
620,1015200.0
634,1015200.0
648,1015200.0
662,1015200.0
676,1015200.0
690,1015200.0
704,1015200.0
2018,0.0
2069,0.0
2071,0.0
2074,0.0
2076,0.0
2079,0.0
2081,0.0
2084,0.0
2086,0.0
2089,0.0
2091,0.0
2094,0.0
2096,0.0
2099,0.0
2101,0.0
2104,0.0
2,1, 6, 1, 0,11, 0.00,60.00,Monday
7,31.865000000000003
8,0.3749870917333333
9,0.0
82,0.0
107,0.0
132,0.0
157,0.0
182,0.0
207,0.0
232,0.0
257,0.0
282,0.0
307,0.0
332,0.0
357,0.0
382,0.0
407,0.0
432,0.0
494,280800.0
508,280800.0
522,280800.0
536,280800.0
550,280800.0
564,280800.0
578,280800.0
592,280800.0
606,1015200.0
620,1015200.0
634,1015200.0
648,1015200.0
662,1015200.0
676,1015200.0
690,1015200.0
704,1015200.0
2018,0.0
2069,0.0
2071,0.0
2074,0.0
2076,0.0
2079,0.0
2081,0.0
2084,0.0
2086,0.0
2089,0.0
2091,0.0
2094,0.0
2096,0.0
2099,0.0
2101,0.0
2104,0.0
2,1, 6, 1, 0,12, 0.00,60.00,Monday
7,32.19666666666666
8,0.4301650681333334
9,0.0
82,0.0
107,0.0
132,0.0
157,0.0
182,0.0
207,0.0
232,0.0
257,0.0
282,0.0
307,0.0
332,0.0
357,0.0
382,0.0
407,0.0
432,0.0
494,280800.0
508,280800.0
522,280800.0
536,280800.0
550,280800.0
564,280800.0
578,280800.0
592,280800.0
606,1015200.0
620,1015200.0
634,1015200.0
648,1015200.0
662,1015200.0
676,1015200.0
690,1015200.0
704,1015200.0
2018,0.0
2069,0.0
2071,0.0
2074,0.0
2076,0.0
2079,0.0
2081,0.0
2084,0.0
2086,0.0
2089,0.0
2091,0.0
2094,0.0
2096,0.0
2099,0.0
2101,0.0
2104,0.0
2,1, 6, 1, 0,13, 0.00,60.00,Monday
7,32.66833333333333
8,0.4405109382666667
9,0.0
82,0.0
107,0.0
132,0.0
157,0.0
182,0.0
207,0.0
232,0.0
257,0.0
282,0.0
307,0.0
332,0.0
357,0.0
382,0.0
407,0.0
432,0.0
494,280800.0
508,280800.0
522,280800.0
536,280800.0
550,280800.0
564,280800.0
578,280800.0
592,280800.0
606,1015200.0
620,1015200.0
634,1015200.0
648,1015200.0
662,1015200.0
676,1015200.0
690,1015200.0
704,1015200.0
2018,0.0
2069,0.0
2071,0.0
2074,0.0
2076,0.0
2079,0.0
2081,0.0
2084,0.0
2086,0.0
2089,0.0
2091,0.0
2094,0.0
2096,0.0
2099,0.0
2101,0.0
2104,0.0
2,1, 6, 1, 0,14, 0.00,60.00,Monday
7,32.83833333333333
8,0.4545082926499999
9,0.0
82,0.0
107,0.0
132,0.0
157,0.0
182,0.0
207,0.0
232,0.0
257,0.0
282,0.0
307,0.0
332,0.0
357,0.0
382,0.0
407,0.0
432,0.0
494,280800.0
508,280800.0
522,280800.0
536,280800.0
550,280800.0
564,280800.0
578,280800.0
592,280800.0
606,1015200.0
620,1015200.0
634,1015200.0
648,1015200.0
662,1015200.0
676,1015200.0
690,1015200.0
704,1015200.0
2018,0.0
2069,0.0
2071,0.0
2074,0.0
2076,0.0
2079,0.0
2081,0.0
2084,0.0
2086,0.0
2089,0.0
2091,0.0
2094,0.0
2096,0.0
2099,0.0
2101,0.0
2104,0.0
2,1, 6, 1, 0,15, 0.00,60.00,Monday
7,32.60333333333333
8,0.5340294935333333
9,0.0
82,0.0
107,0.0
132,0.0
157,0.0
182,0.0
207,0.0
232,0.0
257,0.0
282,0.0
307,0.0
332,0.0
357,0.0
382,0.0
407,0.0
432,0.0
494,280800.0
508,280800.0
522,280800.0
536,280800.0
550,280800.0
564,280800.0
578,280800.0
592,280800.0
606,1015200.0
620,1015200.0
634,1015200.0
648,1015200.0
662,1015200.0
676,1015200.0
690,1015200.0
704,1015200.0
2018,0.0
2069,0.0
2071,0.0
2074,0.0
2076,0.0
2079,0.0
2081,0.0
2084,0.0
2086,0.0
2089,0.0
2091,0.0
2094,0.0
2096,0.0
2099,0.0
2101,0.0
2104,0.0
2,1, 6, 1, 0,16, 0.00,60.00,Monday
7,32.70000000000002
8,0.61588358675
9,0.0
82,0.0
107,0.0
132,0.0
157,0.0
182,0.0
207,0.0
232,0.0
257,0.0
282,0.0
307,0.0
332,0.0
357,0.0
382,0.0
407,0.0
432,0.0
494,280800.0
508,280800.0
522,280800.0
536,280800.0
550,280800.0
564,280800.0
578,280800.0
592,280800.0
606,1015200.0
620,1015200.0
634,1015200.0
648,1015200.0
662,1015200.0
676,1015200.0
690,1015200.0
704,1015200.0
2018,0.0
2069,0.0
2071,0.0
2074,0.0
2076,0.0
2079,0.0
2081,0.0
2084,0.0
2086,0.0
2089,0.0
2091,0.0
2094,0.0
2096,0.0
2099,0.0
2101,0.0
2104,0.0
2,1, 6, 1, 0,17, 0.00,60.00,Monday
7,32.028333333333339
8,0.6417482631833332
9,0.0
82,0.0
107,0.0
132,0.0
157,0.0
182,0.0
207,0.0
232,0.0
257,0.0
282,0.0
307,0.0
332,0.0
357,0.0
382,0.0
407,0.0
432,0.0
494,280800.0
508,280800.0
522,280800.0
536,280800.0
550,280800.0
564,280800.0
578,280800.0
592,280800.0
606,1015200.0
620,1015200.0
634,1015200.0
648,1015200.0
662,1015200.0
676,1015200.0
690,1015200.0
704,1015200.0
2018,0.0
2069,0.0
2071,0.0
2074,0.0
2076,0.0
2079,0.0
2081,0.0
2084,0.0
2086,0.0
2089,0.0
2091,0.0
2094,0.0
2096,0.0
2099,0.0
2101,0.0
2104,0.0
2,1, 6, 1, 0,18, 0.00,60.00,Monday
7,31.09
8,0.5951918457666666
9,144000.0
82,144000.0
107,144000.0
132,144000.0
157,144000.0
182,144000.0
207,144000.0
232,144000.0
257,0.0
282,0.0
307,0.0
332,0.0
357,0.0
382,0.0
407,0.0
432,0.0
494,280800.0
508,280800.0
522,280800.0
536,280800.0
550,280800.0
564,280800.0
578,280800.0
592,280800.0
606,698400.0
620,698400.0
634,698400.0
648,698400.0
662,698400.0
676,698400.0
690,698400.0
704,698400.0
2018,0.0
2069,0.0
2071,0.0
2074,0.0
2076,0.0
2079,0.0
2081,0.0
2084,0.0
2086,0.0
2089,0.0
2091,0.0
2094,0.0
2096,0.0
2099,0.0
2101,0.0
2104,0.0
2,1, 6, 1, 0,19, 0.00,60.00,Monday
7,30.645000000000004
8,0.5944818351333333
9,288000.0
82,288000.0
107,288000.0
132,288000.0
157,288000.0
182,288000.0
207,288000.0
232,288000.0
257,0.0
282,0.0
307,0.0
332,0.0
357,0.0
382,0.0
407,0.0
432,0.0
494,140400.0
508,140400.0
522,140400.0
536,140400.0
550,140400.0
564,140400.0
578,140400.0
592,140400.0
606,816000.0
620,816000.0
634,816000.0
648,816000.0
662,816000.0
676,816000.0
690,816000.0
704,816000.0
2018,0.0
2069,0.0
2071,0.0
2074,0.0
2076,0.0
2079,0.0
2081,0.0
2084,0.0
2086,0.0
2089,0.0
2091,0.0
2094,0.0
2096,0.0
2099,0.0
2101,0.0
2104,0.0
2,1, 6, 1, 0,20, 0.00,60.00,Monday
7,30.345000000000004
8,0.6488483702166668
9,288000.0
82,288000.0
107,288000.0
132,288000.0
157,288000.0
182,288000.0
207,288000.0
232,288000.0
257,0.0
282,0.0
307,0.0
332,0.0
357,0.0
382,0.0
407,0.0
432,0.0
494,0.0
508,0.0
522,0.0
536,0.0
550,0.0
564,0.0
578,0.0
592,0.0
606,1250400.0
620,1250400.0
634,1250400.0
648,1250400.0
662,1250400.0
676,1250400.0
690,1250400.0
704,1250400.0
2018,0.0
2069,0.0
2071,0.0
2074,0.0
2076,0.0
2079,0.0
2081,0.0
2084,0.0
2086,0.0
2089,0.0
2091,0.0
2094,0.0
2096,0.0
2099,0.0
2101,0.0
2104,0.0
2,1, 6, 1, 0,21, 0.00,60.00,Monday
7,30.09666666666667
8,0.5719643517999999
9,288000.0
82,288000.0
107,288000.0
132,288000.0
157,288000.0
182,288000.0
207,288000.0
232,288000.0
257,144000.0
282,144000.0
307,144000.0
332,144000.0
357,144000.0
382,144000.0
407,144000.0
432,144000.0
494,280800.0
508,280800.0
522,280800.0
536,280800.0
550,280800.0
564,280800.0
578,280800.0
592,280800.0
606,795600.0
620,795600.0
634,795600.0
648,795600.0
662,795600.0
676,795600.0
690,795600.0
704,795600.0
2018,0.0
2069,0.0
2071,0.0
2074,0.0
2076,0.0
2079,0.0
2081,0.0
2084,0.0
2086,0.0
2089,0.0
2091,0.0
2094,0.0
2096,0.0
2099,0.0
2101,0.0
2104,0.0
2,1, 6, 1, 0,22, 0.00,60.00,Monday
7,29.896666666666673
8,0.4367580245666666
9,288000.0
82,288000.0
107,288000.0
132,288000.0
157,288000.0
182,288000.0
207,288000.0
232,288000.0
257,288000.0
282,288000.0
307,288000.0
332,288000.0
357,288000.0
382,288000.0
407,288000.0
432,288000.0
494,280800.0
508,280800.0
522,280800.0
536,280800.0
550,280800.0
564,280800.0
578,280800.0
592,280800.0
606,795600.0
620,795600.0
634,795600.0
648,795600.0
662,795600.0
676,795600.0
690,795600.0
704,795600.0
2018,0.0
2069,0.0
2071,0.0
2074,0.0
2076,0.0
2079,0.0
2081,0.0
2084,0.0
2086,0.0
2089,0.0
2091,0.0
2094,0.0
2096,0.0
2099,0.0
2101,0.0
2104,0.0
2,1, 6, 1, 0,23, 0.00,60.00,Monday
7,29.59333333333333
8,0.4804743992833334
9,288000.0
82,288000.0
107,288000.0
132,288000.0
157,288000.0
182,288000.0
207,288000.0
232,288000.0
257,288000.0
282,288000.0
307,288000.0
332,288000.0
357,288000.0
382,288000.0
407,288000.0
432,288000.0
494,0.0
508,0.0
522,0.0
536,0.0
550,0.0
564,0.0
578,0.0
592,0.0
606,1779600.0
620,1779600.0
634,1779600.0
648,1779600.0
662,1779600.0
676,1779600.0
690,1779600.0
704,1779600.0
2018,0.0
2069,0.0
2071,0.0
2074,0.0
2076,0.0
2079,0.0
2081,0.0
2084,0.0
2086,0.0
2089,0.0
2091,0.0
2094,0.0
2096,0.0
2099,0.0
2101,0.0
2104,0.0
2,1, 6, 1, 0,24, 0.00,60.00,Monday
7,29.928432246499999
8,0.60391483495
9,144000.0
82,144000.0
107,144000.0
132,144000.0
157,144000.0
182,144000.0
207,144000.0
232,144000.0
257,144000.0
282,144000.0
307,144000.0
332,144000.0
357,144000.0
382,144000.0
407,144000.0
432,144000.0
494,0.0
508,0.0
522,0.0
536,0.0
550,0.0
564,0.0
578,0.0
592,0.0
606,381600.0
620,381600.0
634,381600.0
648,381600.0
662,381600.0
676,381600.0
690,381600.0
704,381600.0
2018,22163133.83985533
2069,45925773.0846656
2071,4938352.173372655
2074,10033072.865609592
2076,17454667.602375565
2079,36583023.64561353
2081,4116609.5009896827
2084,8736891.095408963
2086,171771320.5100324
2089,368441028.45782127
2091,38029160.38601912
2094,80265169.59750994
2096,134138761.87191805
2099,292253052.84838566
2101,31731354.480781974
2104,70143133.85861939
2,2, 6, 2, 0, 1, 0.00,60.00,Tuesday
7,30.349408177166667
8,0.6262294573666669
9,0.0
82,0.0
107,0.0
132,0.0
157,0.0
182,0.0
207,0.0
232,0.0
257,0.0
282,0.0
307,0.0
332,0.0
357,0.0
382,0.0
407,0.0
432,0.0
494,0.0
508,0.0
522,0.0
536,0.0
550,0.0
564,0.0
578,0.0
592,0.0
606,381600.0
620,381600.0
634,381600.0
648,381600.0
662,381600.0
676,381600.0
690,381600.0
704,381600.0
2018,32771427.521780977
2069,44399298.45553405
2071,7314160.313445793
2074,9641357.182872905
2076,25791342.624823739
2079,35570683.88899929
2081,5847666.937445622
2084,8333114.457812484
2086,244574868.99689067
2089,355810532.84039428
2091,55049056.141475457
2094,77335226.42624183
2096,188663401.7040016
2099,281766939.84112879
2101,42565194.96711111
2104,65736474.67007403
2,2, 6, 2, 0, 2, 0.00,60.00,Tuesday
7,30.150357676499998
8,0.6180136188166666
9,0.0
82,0.0
107,0.0
132,0.0
157,0.0
182,0.0
207,0.0
232,0.0
257,0.0
282,0.0
307,0.0
332,0.0
357,0.0
382,0.0
407,0.0
432,0.0
494,0.0
508,0.0
522,0.0
536,0.0
550,0.0
564,0.0
578,0.0
592,0.0
606,381600.0
620,381600.0
634,381600.0
648,381600.0
662,381600.0
676,381600.0
690,381600.0
704,381600.0
2018,29487568.822227934
2069,39225147.24068258
2071,6677489.973120194
2074,8699224.303318844
2076,23384022.838389778
2079,31341669.52396753
2081,5305086.105050352
2084,7273657.156189032
2086,223106752.4333953
2089,309320222.05698898
2091,50991324.25840324
2094,68926297.40069729
2096,173607612.21710993
2099,243988985.37175153
2101,39276260.26113502
2104,56708875.70752989
2,2, 6, 2, 0, 3, 0.00,60.00,Tuesday
7,30.120251894166669
8,0.5859617066666666
9,0.0
82,0.0
107,0.0
132,0.0
157,0.0
182,0.0
207,0.0
232,0.0
257,0.0
282,0.0
307,0.0
332,0.0
357,0.0
382,0.0
407,0.0
432,0.0
494,0.0
508,0.0
522,0.0
536,0.0
550,0.0
564,0.0
578,0.0
592,0.0
606,381600.0
620,381600.0
634,381600.0
648,381600.0
662,381600.0
676,381600.0
690,381600.0
704,381600.0
2018,26877831.301233345
2069,36385851.40069937
2071,6174021.885539334
2074,8153467.650400738
2076,21427038.596954455
2079,29192977.87346337
2081,4875607.544312442
2084,6793874.151453828
2086,206063899.99157373
2089,290055429.1685081
2091,47812365.77629636
2094,65358734.04071281
2096,161394394.50555373
2099,229815458.22473676
2101,36663868.04444098
2104,53539564.2492929
2,2, 6, 2, 0, 4, 0.00,60.00,Tuesday
7,30.03345648766667
8,0.5697328902166666
9,0.0
82,0.0
107,0.0
132,0.0
157,0.0
182,0.0
207,0.0
232,0.0
257,0.0
282,0.0
307,0.0
332,0.0
357,0.0
382,0.0
407,0.0
432,0.0
494,0.0
508,0.0
522,0.0
536,0.0
550,0.0
564,0.0
578,0.0
592,0.0
606,381600.0
620,381600.0
634,381600.0
648,381600.0
662,381600.0
676,381600.0
690,381600.0
704,381600.0
2018,24626532.078557929
2069,33955952.243415269
2071,5731090.971292783
2074,7677506.722326772
2076,19721699.81484741
2079,27343450.42667446
2081,4496729.234515086
2084,6378143.643997639
2086,191189902.23522908
2089,273647646.2544782
2091,44998012.935218419
2094,62269754.80334892
2096,150622269.86672328
2099,217815420.36387105
2101,34311221.720297928
2104,50870859.86233665
2,2, 6, 2, 0, 5, 0.00,60.00,Tuesday
7,29.783208016000005
8,0.5966118671999999
9,0.0
82,0.0
107,0.0
132,0.0
157,0.0
182,0.0
207,0.0
232,0.0
257,0.0
282,0.0
307,0.0
332,0.0
357,0.0
382,0.0
407,0.0
432,0.0
494,0.0
508,0.0
522,0.0
536,0.0
550,0.0
564,0.0
578,0.0
592,0.0
606,381600.0
620,381600.0
634,381600.0
648,381600.0
662,381600.0
676,381600.0
690,381600.0
704,381600.0
2018,22612278.995360134
2069,31566953.98693683
2071,5326789.3771806
2074,7199049.125158651
2076,18180529.448823226
2079,25496068.166237739
2081,4149024.4205875245
2084,5953414.173909793
2086,177610839.6186737
2089,256812804.5112452
2091,42386209.905996989
2094,59018674.970142748
2096,140669471.33742828
2099,205224207.15088395
2101,32086620.24410575
2104,47985514.882785219
2,2, 6, 2, 0, 6, 0.00,60.00,Tuesday
7,29.824886666
8,0.5238864829166666
9,0.0
82,0.0
107,0.0
132,0.0
157,0.0
182,0.0
207,0.0
232,0.0
257,0.0
282,0.0
307,0.0
332,0.0
357,0.0
382,0.0
407,0.0
432,0.0
494,0.0
508,0.0
522,0.0
536,0.0
550,0.0
564,0.0
578,0.0
592,0.0
606,381600.0
620,381600.0
634,381600.0
648,381600.0
662,381600.0
676,381600.0
690,381600.0
704,381600.0
2018,20928223.941350186
2069,29737998.636684
2071,4981544.467830312
2074,6828594.713892855
2076,16886307.758529277
2079,24084037.474595358
2081,3856039.408092802
2084,5629228.163983559
2086,166490313.42048774
2089,244472643.0269917
2091,40223565.30668056
2094,56652732.79683846
2096,132512247.70286411
2099,196084141.95169807
2101,30264652.562383556
2104,45907251.25090516
2,2, 6, 2, 0, 7, 0.00,60.00,Tuesday
7,29.40336162266666
8,0.44091665869999999
9,288000.0
82,288000.0
107,288000.0
132,288000.0
157,288000.0
182,288000.0
207,288000.0
232,288000.0
257,288000.0
282,288000.0
307,288000.0
332,288000.0
357,288000.0
382,288000.0
407,288000.0
432,288000.0
494,0.0
508,0.0
522,0.0
536,0.0
550,0.0
564,0.0
578,0.0
592,0.0
606,1290600.0
620,1290600.0
634,1290600.0
648,1290600.0
662,1290600.0
676,1290600.0
690,1290600.0
704,1290600.0
2018,0.0
2069,0.0
2071,0.0
2074,0.0
2076,0.0
2079,0.0
2081,0.0
2084,0.0
2086,0.0
2089,0.0
2091,0.0
2094,0.0
2096,0.0
2099,0.0
2101,0.0
2104,0.0
2,2, 6, 2, 0, 8, 0.00,60.00,Tuesday
7,29.313333333333334
8,0.4981232371666667
9,0.0
82,0.0
107,0.0
132,0.0
157,0.0
182,0.0
207,0.0
232,0.0
257,0.0
282,0.0
307,0.0
332,0.0
357,0.0
382,0.0
407,0.0
432,0.0
494,0.0
508,0.0
522,0.0
536,0.0
550,0.0
564,0.0
578,0.0
592,0.0
606,2290800.0
620,2290800.0
634,2290800.0
648,2290800.0
662,2290800.0
676,2290800.0
690,2290800.0
704,2290800.0
2018,0.0
2069,0.0
2071,0.0
2074,0.0
2076,0.0
2079,0.0
2081,0.0
2084,0.0
2086,0.0
2089,0.0
2091,0.0
2094,0.0
2096,0.0
2099,0.0
2101,0.0
2104,0.0
2,2, 6, 2, 0, 9, 0.00,60.00,Tuesday
7,30.165
8,0.6416468331833336
9,0.0
82,0.0
107,0.0
132,0.0
157,0.0
182,0.0
207,0.0
232,0.0
257,0.0
282,0.0
307,0.0
332,0.0
357,0.0
382,0.0
407,0.0
432,0.0
494,280800.0
508,280800.0
522,280800.0
536,280800.0
550,280800.0
564,280800.0
578,280800.0
592,280800.0
606,1216800.0
620,1216800.0
634,1216800.0
648,1216800.0
662,1216800.0
676,1216800.0
690,1216800.0
704,1216800.0
2018,0.0
2069,0.0
2071,0.0
2074,0.0
2076,0.0
2079,0.0
2081,0.0
2084,0.0
2086,0.0
2089,0.0
2091,0.0
2094,0.0
2096,0.0
2099,0.0
2101,0.0
2104,0.0
2,2, 6, 2, 0,10, 0.00,60.00,Tuesday
7,31.11666666666667
8,0.7338467970166666
9,0.0
82,0.0
107,0.0
132,0.0
157,0.0
182,0.0
207,0.0
232,0.0
257,0.0
282,0.0
307,0.0
332,0.0
357,0.0
382,0.0
407,0.0
432,0.0
494,280800.0
508,280800.0
522,280800.0
536,280800.0
550,280800.0
564,280800.0
578,280800.0
592,280800.0
606,1015200.0
620,1015200.0
634,1015200.0
648,1015200.0
662,1015200.0
676,1015200.0
690,1015200.0
704,1015200.0
2018,0.0
2069,0.0
2071,0.0
2074,0.0
2076,0.0
2079,0.0
2081,0.0
2084,0.0
2086,0.0
2089,0.0
2091,0.0
2094,0.0
2096,0.0
2099,0.0
2101,0.0
2104,0.0
2,2, 6, 2, 0,11, 0.00,60.00,Tuesday
7,31.96166666666666
8,0.7265438297833334
9,0.0
82,0.0
107,0.0
132,0.0
157,0.0
182,0.0
207,0.0
232,0.0
257,0.0
282,0.0
307,0.0
332,0.0
357,0.0
382,0.0
407,0.0
432,0.0
494,280800.0
508,280800.0
522,280800.0
536,280800.0
550,280800.0
564,280800.0
578,280800.0
592,280800.0
606,1015200.0
620,1015200.0
634,1015200.0
648,1015200.0
662,1015200.0
676,1015200.0
690,1015200.0
704,1015200.0
2018,0.0
2069,0.0
2071,0.0
2074,0.0
2076,0.0
2079,0.0
2081,0.0
2084,0.0
2086,0.0
2089,0.0
2091,0.0
2094,0.0
2096,0.0
2099,0.0
2101,0.0
2104,0.0
2,2, 6, 2, 0,12, 0.00,60.00,Tuesday
7,32.61
8,0.6807988531666668
9,0.0
82,0.0
107,0.0
132,0.0
157,0.0
182,0.0
207,0.0
232,0.0
257,0.0
282,0.0
307,0.0
332,0.0
357,0.0
382,0.0
407,0.0
432,0.0
494,280800.0
508,280800.0
522,280800.0
536,280800.0
550,280800.0
564,280800.0
578,280800.0
592,280800.0
606,1015200.0
620,1015200.0
634,1015200.0
648,1015200.0
662,1015200.0
676,1015200.0
690,1015200.0
704,1015200.0
2018,0.0
2069,0.0
2071,0.0
2074,0.0
2076,0.0
2079,0.0
2081,0.0
2084,0.0
2086,0.0
2089,0.0
2091,0.0
2094,0.0
2096,0.0
2099,0.0
2101,0.0
2104,0.0
2,2, 6, 2, 0,13, 0.00,60.00,Tuesday
7,33.15833333333333
8,0.5912360718333332
9,0.0
82,0.0
107,0.0
132,0.0
157,0.0
182,0.0
207,0.0
232,0.0
257,0.0
282,0.0
307,0.0
332,0.0
357,0.0
382,0.0
407,0.0
432,0.0
494,280800.0
508,280800.0
522,280800.0
536,280800.0
550,280800.0
564,280800.0
578,280800.0
592,280800.0
606,1015200.0
620,1015200.0
634,1015200.0
648,1015200.0
662,1015200.0
676,1015200.0
690,1015200.0
704,1015200.0
2018,0.0
2069,0.0
2071,0.0
2074,0.0
2076,0.0
2079,0.0
2081,0.0
2084,0.0
2086,0.0
2089,0.0
2091,0.0
2094,0.0
2096,0.0
2099,0.0
2101,0.0
2104,0.0
2,2, 6, 2, 0,14, 0.00,60.00,Tuesday
7,33.60666666666666
8,0.5483311381166668
9,0.0
82,0.0
107,0.0
132,0.0
157,0.0
182,0.0
207,0.0
232,0.0
257,0.0
282,0.0
307,0.0
332,0.0
357,0.0
382,0.0
407,0.0
432,0.0
494,280800.0
508,280800.0
522,280800.0
536,280800.0
550,280800.0
564,280800.0
578,280800.0
592,280800.0
606,1015200.0
620,1015200.0
634,1015200.0
648,1015200.0
662,1015200.0
676,1015200.0
690,1015200.0
704,1015200.0
2018,0.0
2069,0.0
2071,0.0
2074,0.0
2076,0.0
2079,0.0
2081,0.0