Program Version,EnergyPlus, Version 9.3.0-baff08990c, YMD=2025.10.29 15:45
1,5,Environment Title[],Latitude[deg],Longitude[deg],Time Zone[],Elevation[m]
2,8,Day of Simulation[],Month[],Day of Month[],DST Indicator[1=yes 0=no],Hour[],StartMinute[],EndMinute[],DayType
3,5,Cumulative Day of Simulation[],Month[],Day of Month[],DST Indicator[1=yes 0=no],DayType  ! When Daily Report Variables Requested
4,2,Cumulative Days of Simulation[],Month[]  ! When Monthly Report Variables Requested
5,1,Cumulative Days of Simulation[] ! When Run Period Report Variables Requested
6,1,Calendar Year of Simulation[] ! When Annual Report Variables Requested
7,1,Environment,Site Outdoor Air Drybulb Temperature [C] !Hourly
8,1,Environment,Site Wind Speed [m/s] !Hourly
9,1,MID_3R_NV_LFT LIGHTING NAC ZONES,Lights Electric Energy [J] !Hourly
82,1,TOP_3R_NV_MID LIGHTING NAC ZONES,Lights Electric Energy [J] !Hourly
107,1,TOP_3R_NV_MID2 LIGHTING NAC ZONES,Lights Electric Energy [J] !Hourly
132,1,TOP_3R_NV_LFT LIGHTING NAC ZONES,Lights Electric Energy [J] !Hourly
157,1,MID_3R_NV_MID2 LIGHTING NAC ZONES,Lights Electric Energy [J] !Hourly
182,1,MID_3R_NV_RHT LIGHTING NAC ZONES,Lights Electric Energy [J] !Hourly
207,1,MID_3R_NV_MID LIGHTING NAC ZONES,Lights Electric Energy [J] !Hourly
232,1,TOP_3R_NV_RHT LIGHTING NAC ZONES,Lights Electric Energy [J] !Hourly
257,1,MID_3R_AC_MID LIGHTING 3-R AC ZONES,Lights Electric Energy [J] !Hourly
282,1,MID_3R_AC_LFT LIGHTING 3-R AC ZONES,Lights Electric Energy [J] !Hourly
307,1,MID_3R_AC_RHT LIGHTING 3-R AC ZONES,Lights Electric Energy [J] !Hourly
332,1,TOP_3R_AC_MID LIGHTING 3-R AC ZONES,Lights Electric Energy [J] !Hourly
357,1,TOP_3R_AC_RHT LIGHTING 3-R AC ZONES,Lights Electric Energy [J] !Hourly
382,1,TOP_3R_AC_LFT LIGHTING 3-R AC ZONES,Lights Electric Energy [J] !Hourly
407,1,MID_3R_AC_MID2 LIGHTING 3-R AC ZONES,Lights Electric Energy [J] !Hourly
432,1,TOP_3R_AC_MID2 LIGHTING 3-R AC ZONES,Lights Electric Energy [J] !Hourly
494,1,MID_3R_AC_MID,Zone Electric Equipment Electric Energy [J] !Hourly
508,1,MID_3R_AC_LFT,Zone Electric Equipment Electric Energy [J] !Hourly
522,1,MID_3R_AC_RHT,Zone Electric Equipment Electric Energy [J] !Hourly
536,1,TOP_3R_AC_MID,Zone Electric Equipment Electric Energy [J] !Hourly
550,1,TOP_3R_AC_RHT,Zone Electric Equipment Electric Energy [J] !Hourly
564,1,TOP_3R_AC_LFT,Zone Electric Equipment Electric Energy [J] !Hourly
578,1,MID_3R_AC_MID2,Zone Electric Equipment Electric Energy [J] !Hourly
592,1,TOP_3R_AC_MID2,Zone Electric Equipment Electric Energy [J] !Hourly
606,1,MID_3R_NV_LFT,Zone Electric Equipment Electric Energy [J] !Hourly
620,1,TOP_3R_NV_MID,Zone Electric Equipment Electric Energy [J] !Hourly
634,1,TOP_3R_NV_MID2,Zone Electric Equipment Electric Energy [J] !Hourly
648,1,TOP_3R_NV_LFT,Zone Electric Equipment Electric Energy [J] !Hourly
662,1,MID_3R_NV_MID2,Zone Electric Equipment Electric Energy [J] !Hourly
676,1,MID_3R_NV_RHT,Zone Electric Equipment Electric Energy [J] !Hourly
690,1,MID_3R_NV_MID,Zone Electric Equipment Electric Energy [J] !Hourly
704,1,TOP_3R_NV_RHT,Zone Electric Equipment Electric Energy [J] !Hourly
2018,1,TOP_3R_AC_MID2 IDEAL LOADS AIR SYSTEM,Zone Ideal Loads Supply Air Sensible Cooling Energy [J] !Hourly
2019,9,TOP_3R_AC_MID2 IDEAL LOADS AIR SYSTEM,Zone Ideal Loads Supply Air Sensible Cooling Energy [J] !Monthly [Value,Min,Day,Hour,Minute,Max,Day,Hour,Minute]
2069,1,TOP_3R_AC_MID2 IDEAL LOADS AIR SYSTEM,Zone Ideal Loads Zone Total Cooling Energy [J] !Hourly
2071,1,TOP_3R_AC_LFT IDEAL LOADS AIR SYSTEM,Zone Ideal Loads Supply Air Sensible Cooling Energy [J] !Hourly
2072,9,TOP_3R_AC_LFT IDEAL LOADS AIR SYSTEM,Zone Ideal Loads Supply Air Sensible Cooling Energy [J] !Monthly [Value,Min,Day,Hour,Minute,Max,Day,Hour,Minute]
2074,1,TOP_3R_AC_LFT IDEAL LOADS AIR SYSTEM,Zone Ideal Loads Zone Total Cooling Energy [J] !Hourly
2076,1,TOP_3R_AC_MID IDEAL LOADS AIR SYSTEM,Zone Ideal Loads Supply Air Sensible Cooling Energy [J] !Hourly
2077,9,TOP_3R_AC_MID IDEAL LOADS AIR SYSTEM,Zone Ideal Loads Supply Air Sensible Cooling Energy [J] !Monthly [Value,Min,Day,Hour,Minute,Max,Day,Hour,Minute]
2079,1,TOP_3R_AC_MID IDEAL LOADS AIR SYSTEM,Zone Ideal Loads Zone Total Cooling Energy [J] !Hourly
2081,1,TOP_3R_AC_RHT IDEAL LOADS AIR SYSTEM,Zone Ideal Loads Supply Air Sensible Cooling Energy [J] !Hourly
2082,9,TOP_3R_AC_RHT IDEAL LOADS AIR SYSTEM,Zone Ideal Loads Supply Air Sensible Cooling Energy [J] !Monthly [Value,Min,Day,Hour,Minute,Max,Day,Hour,Minute]
2084,1,TOP_3R_AC_RHT IDEAL LOADS AIR SYSTEM,Zone Ideal Loads Zone Total Cooling Energy [J] !Hourly
2086,1,MID_3R_AC_MID2 IDEAL LOADS AIR SYSTEM,Zone Ideal Loads Supply Air Sensible Cooling Energy [J] !Hourly
2087,9,MID_3R_AC_MID2 IDEAL LOADS AIR SYSTEM,Zone Ideal Loads Supply Air Sensible Cooling Energy [J] !Monthly [Value,Min,Day,Hour,Minute,Max,Day,Hour,Minute]
2089,1,MID_3R_AC_MID2 IDEAL LOADS AIR SYSTEM,Zone Ideal Loads Zone Total Cooling Energy [J] !Hourly
2091,1,MID_3R_AC_LFT IDEAL LOADS AIR SYSTEM,Zone Ideal Loads Supply Air Sensible Cooling Energy [J] !Hourly
2092,9,MID_3R_AC_LFT IDEAL LOADS AIR SYSTEM,Zone Ideal Loads Supply Air Sensible Cooling Energy [J] !Monthly [Value,Min,Day,Hour,Minute,Max,Day,Hour,Minute]
2094,1,MID_3R_AC_LFT IDEAL LOADS AIR SYSTEM,Zone Ideal Loads Zone Total Cooling Energy [J] !Hourly
2096,1,MID_3R_AC_MID IDEAL LOADS AIR SYSTEM,Zone Ideal Loads Supply Air Sensible Cooling Energy [J] !Hourly
2097,9,MID_3R_AC_MID IDEAL LOADS AIR SYSTEM,Zone Ideal Loads Supply Air Sensible Cooling Energy [J] !Monthly [Value,Min,Day,Hour,Minute,Max,Day,Hour,Minute]
2099,1,MID_3R_AC_MID IDEAL LOADS AIR SYSTEM,Zone Ideal Loads Zone Total Cooling Energy [J] !Hourly
2101,1,MID_3R_AC_RHT IDEAL LOADS AIR SYSTEM,Zone Ideal Loads Supply Air Sensible Cooling Energy [J] !Hourly
2102,9,MID_3R_AC_RHT IDEAL LOADS AIR SYSTEM,Zone Ideal Loads Supply Air Sensible Cooling Energy [J] !Monthly [Value,Min,Day,Hour,Minute,Max,Day,Hour,Minute]
2104,1,MID_3R_AC_RHT IDEAL LOADS AIR SYSTEM,Zone Ideal Loads Zone Total Cooling Energy [J] !Hourly
End of Data Dictionary
1,JUNE2015,   1.37, 103.98,   8.00,  16.00
2,1, 6, 1, 0, 1, 0.00,60.00,Monday
7,30.655452168999998
8,0.4941674630333333
9,0.0
82,0.0
107,0.0
132,0.0
157,0.0
182,0.0
207,0.0
232,0.0
257,0.0
282,0.0
307,0.0
332,0.0
357,0.0
382,0.0
407,0.0
432,0.0
494,0.0
508,0.0
522,0.0
536,0.0
550,0.0
564,0.0
578,0.0
592,0.0
606,381600.0
620,381600.0
634,381600.0
648,381600.0
662,381600.0
676,381600.0
690,381600.0
704,381600.0
2018,33106572.735501045
2069,44601929.24742637
2071,7418424.6492591309
2074,9714279.48020084
2076,25941656.067398903
2079,35624695.07450979
2081,5913377.609251195
2084,8373067.350758646
2086,247802159.96925483
2089,358030909.40545257
2091,55919525.531789798
2094,77923793.10636467
2096,190184089.1624502
2099,282584176.4180368
2101,43200715.16464459
2104,66223218.41821943
2,1, 6, 1, 0, 2, 0.00,60.00,Monday
7,31.289303839833335
8,0.2523580967
9,0.0
82,0.0
107,0.0
132,0.0
157,0.0
182,0.0
207,0.0
232,0.0
257,0.0
282,0.0
307,0.0
332,0.0
357,0.0
382,0.0
407,0.0
432,0.0
494,0.0
508,0.0
522,0.0
536,0.0
550,0.0
564,0.0
578,0.0
592,0.0
606,381600.0
620,381600.0
634,381600.0
648,381600.0
662,381600.0
676,381600.0
690,381600.0
704,381600.0
2018,30128466.72498638
2069,40081865.12834272
2071,6843111.775885077
2074,8912400.369574784
2076,23785560.689450735
2079,31911639.053209317
2081,5431905.467425901
2084,7442138.781042715
2086,229125870.02118177
2089,317178328.19902977
2091,52440454.08290337
2094,70777462.37876414
2096,177414096.51080508
2099,249208524.86345438
2101,40467602.01765978
2104,58253635.98968978
2,1, 6, 1, 0, 3, 0.00,60.00,Monday
7,31.693275474333338
8,0.13936496188333334
9,0.0
82,0.0
107,0.0
132,0.0
157,0.0
182,0.0
207,0.0
232,0.0
257,0.0
282,0.0
307,0.0
332,0.0
357,0.0
382,0.0
407,0.0
432,0.0
494,0.0
508,0.0
522,0.0
536,0.0
550,0.0
564,0.0
578,0.0
592,0.0
606,381600.0
620,381600.0
634,381600.0
648,381600.0
662,381600.0
676,381600.0
690,381600.0
704,381600.0
2018,27693567.584480928
2069,38474148.52637277
2071,6382250.623205071
2074,8631691.785913542
2076,21972741.26860436
2079,30776228.893284378
2081,5037588.914528757
2084,7212616.522943363
2086,213672922.52975095
2089,308835122.61842766
2091,49644293.80024055
2094,69567503.35518246
2096,166496387.91606633
2099,243963432.6824133
2101,38172620.28846263
2104,57286980.97049679
2,1, 6, 1, 0, 4, 0.00,60.00,Monday
7,31.415476577
8,0.13743779001666668
9,0.0
82,0.0
107,0.0
132,0.0
157,0.0
182,0.0
207,0.0
232,0.0
257,0.0
282,0.0
307,0.0
332,0.0
357,0.0
382,0.0
407,0.0
432,0.0
494,0.0
508,0.0
522,0.0
536,0.0
550,0.0
564,0.0
578,0.0
592,0.0
606,381600.0
620,381600.0
634,381600.0
648,381600.0
662,381600.0
676,381600.0
690,381600.0
704,381600.0
2018,25432164.62402489
2069,36260915.963529039
2071,5937464.750216652
2074,8199521.402464211
2076,20239434.1402738
2079,29082845.953446207
2081,4652786.4651493369
2084,6838515.7602522219
2086,198173610.06329457
2089,293819877.8513326
2091,46691310.96215016
2094,66744428.49126978
2096,155132048.8821631
2099,233036567.25570194
2101,35652869.433653619
2104,54873441.50379222
2,1, 6, 1, 0, 5, 0.00,60.00,Monday
7,31.023394761499998
8,0.14585648828333334
9,0.0
82,0.0
107,0.0
132,0.0
157,0.0
182,0.0
207,0.0
232,0.0
257,0.0
282,0.0
307,0.0
332,0.0
357,0.0
382,0.0
407,0.0
432,0.0
494,0.0
508,0.0
522,0.0
536,0.0
550,0.0
564,0.0
578,0.0
592,0.0
606,381600.0
620,381600.0
634,381600.0
648,381600.0
662,381600.0
676,381600.0
690,381600.0
704,381600.0
2018,23427635.041583368
2069,34200572.6990353
2071,5540089.494544794
2074,7798613.202268166
2076,18706055.857920246
2079,27511310.781992765
2081,4307053.354914886
2084,6481463.87888466
2086,184263198.15280248
2089,279500096.94271329
2091,44045287.84562305
2094,64095878.689858388
2096,144935130.9687525
2099,222574572.86925669
2101,33350258.799419825
2104,52494759.93727026
2,1, 6, 1, 0, 6, 0.00,60.00,Monday
7,31.14932337216667
8,0.1305405427
9,0.0
82,0.0
107,0.0
132,0.0
157,0.0
182,0.0
207,0.0
232,0.0
257,0.0
282,0.0
307,0.0
332,0.0
357,0.0
382,0.0
407,0.0
432,0.0
494,0.0
508,0.0
522,0.0
536,0.0
550,0.0
564,0.0
578,0.0
592,0.0
606,381600.0
620,381600.0
634,381600.0
648,381600.0
662,381600.0
676,381600.0
690,381600.0
704,381600.0
2018,21843075.663767853
2069,32359501.148371858
2071,5221627.532876453
2074,7424247.20701616
2076,17506049.317336978
2079,26102096.74618643
2081,4038343.003104806
2084,6163398.306238719
2086,172874819.91055496
2089,265815663.66980089
2091,41858292.30207518
2094,61415831.26034602
2096,136707447.43115417
2099,212530469.94840048
2101,31486547.559887094
2104,50188882.47692336
2,1, 6, 1, 0, 7, 0.00,60.00,Monday
7,29.88794638966667
8,0.18774712116666665
9,288000.0
82,288000.0
107,288000.0
132,288000.0
157,288000.0
182,288000.0
207,288000.0
232,288000.0
257,288000.0
282,288000.0
307,288000.0
332,288000.0
357,288000.0
382,288000.0
407,288000.0
432,288000.0
494,0.0
508,0.0
522,0.0
536,0.0
550,0.0
564,0.0
578,0.0
592,0.0
606,1290600.0
620,1290600.0
634,1290600.0
648,1290600.0
662,1290600.0
676,1290600.0
690,1290600.0
704,1290600.0
2018,0.0
2069,0.0
2071,0.0
2074,0.0
2076,0.0
2079,0.0
2081,0.0
2084,0.0
2086,0.0
2089,0.0
2091,0.0
2094,0.0
2096,0.0
2099,0.0
2101,0.0
2104,0.0
2,1, 6, 1, 0, 8, 0.00,60.00,Monday
7,28.91333333333333
8,0.30926038496666666
9,0.0
82,0.0
107,0.0
132,0.0
157,0.0
182,0.0
207,0.0
232,0.0
257,0.0
282,0.0
307,0.0
332,0.0
357,0.0
382,0.0
407,0.0
432,0.0
494,0.0
508,0.0
522,0.0
536,0.0
550,0.0
564,0.0
578,0.0
592,0.0
606,2290800.0
620,2290800.0
634,2290800.0
648,2290800.0
662,2290800.0
676,2290800.0
690,2290800.0
704,2290800.0
2018,0.0
2069,0.0
2071,0.0
2074,0.0
2076,0.0
2079,0.0
2081,0.0
2084,0.0
2086,0.0
2089,0.0
2091,0.0
2094,0.0
2096,0.0
2099,0.0
2101,0.0
2104,0.0
2,1, 6, 1, 0, 9, 0.00,60.00,Monday
7,29.919999999999999
8,0.4374680353666666
9,0.0
82,0.0
107,0.0
132,0.0
157,0.0
182,0.0
207,0.0
232,0.0
257,0.0
282,0.0
307,0.0
332,0.0
357,0.0
382,0.0
407,0.0
432,0.0
494,280800.0
508,280800.0
522,280800.0
536,280800.0
550,280800.0
564,280800.0
578,280800.0
592,280800.0
606,1216800.0
620,1216800.0
634,1216800.0
648,1216800.0
662,1216800.0
676,1216800.0
690,1216800.0
704,1216800.0
2018,0.0
2069,0.0
2071,0.0
2074,0.0
2076,0.0
2079,0.0
2081,0.0
2084,0.0
2086,0.0
2089,0.0
2091,0.0
2094,0.0
2096,0.0
2099,0.0
2101,0.0
2104,0.0
2,1, 6, 1, 0,10, 0.00,60.00,Monday
7,30.964999999999998
8,0.4265135839166666
9,0.0
82,0.0
107,0.0
132,0.0
157,0.0
182,0.0
207,0.0
232,0.0
257,0.0
282,0.0
307,0.0
332,0.0
357,0.0
382,0.0
407,0.0
432,0.0
494,280800.0
508,280800.0
522,280800.0
536,280800.0
550,280800.0
564,280800.0
578,280800.0
592,280800.0
606,1015200.0
620,1015200.0
634,1015200.0
648,1015200.0
662,1015200.0
676,1015200.0
690,1015200.0
704,1015200.0
2018,0.0
2069,0.0
2071,0.0
2074,0.0
2076,0.0
2079,0.0
2081,0.0
2084,0.0
2086,0.0
2089,0.0
2091,0.0
2094,0.0
2096,0.0
2099,0.0
2101,0.0
2104,0.0
2,1, 6, 1, 0,11, 0.00,60.00,Monday
7,31.865000000000003
8,0.3749870917333333
9,0.0
82,0.0
107,0.0
132,0.0
157,0.0
182,0.0
207,0.0
232,0.0
257,0.0
282,0.0
307,0.0
332,0.0
357,0.0
382,0.0
407,0.0
432,0.0
494,280800.0
508,280800.0
522,280800.0
536,280800.0
550,280800.0
564,280800.0
578,280800.0
592,280800.0
606,1015200.0
620,1015200.0
634,1015200.0
648,1015200.0
662,1015200.0
676,1015200.0
690,1015200.0
704,1015200.0
2018,0.0
2069,0.0
2071,0.0
2074,0.0
2076,0.0
2079,0.0
2081,0.0
2084,0.0
2086,0.0
2089,0.0
2091,0.0
2094,0.0
2096,0.0
2099,0.0
2101,0.0
2104,0.0
2,1, 6, 1, 0,12, 0.00,60.00,Monday
7,32.19666666666666
8,0.4301650681333334
9,0.0
82,0.0
107,0.0
132,0.0
157,0.0
182,0.0
207,0.0
232,0.0
257,0.0
282,0.0
307,0.0
332,0.0
357,0.0
382,0.0
407,0.0
432,0.0
494,280800.0
508,280800.0
522,280800.0
536,280800.0
550,280800.0
564,280800.0
578,280800.0
592,280800.0
606,1015200.0
620,1015200.0
634,1015200.0
648,1015200.0
662,1015200.0
676,1015200.0
690,1015200.0
704,1015200.0
2018,0.0
2069,0.0
2071,0.0
2074,0.0
2076,0.0
2079,0.0
2081,0.0
2084,0.0
2086,0.0
2089,0.0
2091,0.0
2094,0.0
2096,0.0
2099,0.0
2101,0.0
2104,0.0
2,1, 6, 1, 0,13, 0.00,60.00,Monday
7,32.66833333333333
8,0.4405109382666667
9,0.0
82,0.0
107,0.0
132,0.0
157,0.0
182,0.0
207,0.0
232,0.0
257,0.0
282,0.0
307,0.0
332,0.0
357,0.0
382,0.0
407,0.0
432,0.0
494,280800.0
508,280800.0
522,280800.0
536,280800.0
550,280800.0
564,280800.0
578,280800.0
592,280800.0
606,1015200.0
620,1015200.0
634,1015200.0
648,1015200.0
662,1015200.0
676,1015200.0
690,1015200.0
704,1015200.0
2018,0.0
2069,0.0
2071,0.0
2074,0.0
2076,0.0
2079,0.0
2081,0.0
2084,0.0
2086,0.0
2089,0.0
2091,0.0
2094,0.0
2096,0.0
2099,0.0
2101,0.0
2104,0.0
2,1, 6, 1, 0,14, 0.00,60.00,Monday
7,32.83833333333333
8,0.4545082926499999
9,0.0
82,0.0
107,0.0
132,0.0
157,0.0
182,0.0
207,0.0
232,0.0
257,0.0
282,0.0
307,0.0
332,0.0
357,0.0
382,0.0
407,0.0
432,0.0
494,280800.0
508,280800.0
522,280800.0
536,280800.0
550,280800.0
564,280800.0
578,280800.0
592,280800.0
606,1015200.0
620,1015200.0
634,1015200.0
648,1015200.0
662,1015200.0
676,1015200.0
690,1015200.0
704,1015200.0
2018,0.0
2069,0.0
2071,0.0
2074,0.0
2076,0.0
2079,0.0
2081,0.0
2084,0.0
2086,0.0
2089,0.0
2091,0.0
2094,0.0
2096,0.0
2099,0.0
2101,0.0
2104,0.0
2,1, 6, 1, 0,15, 0.00,60.00,Monday
7,32.60333333333333
8,0.5340294935333333
9,0.0
82,0.0
107,0.0
132,0.0
157,0.0
182,0.0
207,0.0
232,0.0
257,0.0
282,0.0
307,0.0
332,0.0
357,0.0
382,0.0
407,0.0
432,0.0
494,280800.0
508,280800.0
522,280800.0
536,280800.0
550,280800.0
564,280800.0
578,280800.0
592,280800.0
606,1015200.0
620,1015200.0
634,1015200.0
648,1015200.0
662,1015200.0
676,1015200.0
690,1015200.0
704,1015200.0
2018,0.0
2069,0.0
2071,0.0
2074,0.0
2076,0.0
2079,0.0
2081,0.0
2084,0.0
2086,0.0
2089,0.0
2091,0.0
2094,0.0
2096,0.0
2099,0.0
2101,0.0
2104,0.0
2,1, 6, 1, 0,16, 0.00,60.00,Monday
7,32.70000000000002
8,0.61588358675
9,0.0
82,0.0
107,0.0
132,0.0
157,0.0
182,0.0
207,0.0
232,0.0
257,0.0
282,0.0
307,0.0
332,0.0
357,0.0
382,0.0
407,0.0
432,0.0
494,280800.0
508,280800.0
522,280800.0
536,280800.0
550,280800.0
564,280800.0
578,280800.0
592,280800.0
606,1015200.0
620,1015200.0
634,1015200.0
648,1015200.0
662,1015200.0
676,1015200.0
690,1015200.0
704,1015200.0
2018,0.0
2069,0.0
2071,0.0
2074,0.0
2076,0.0
2079,0.0
2081,0.0
2084,0.0
2086,0.0
2089,0.0
2091,0.0
2094,0.0
2096,0.0
2099,0.0
2101,0.0
2104,0.0
2,1, 6, 1, 0,17, 0.00,60.00,Monday
7,32.028333333333339
8,0.6417482631833332
9,0.0
82,0.0
107,0.0
132,0.0
157,0.0
182,0.0
207,0.0
232,0.0
257,0.0
282,0.0
307,0.0
332,0.0
357,0.0
382,0.0
407,0.0
432,0.0
494,280800.0
508,280800.0
522,280800.0
536,280800.0
550,280800.0
564,280800.0
578,280800.0
592,280800.0
606,1015200.0
620,1015200.0
634,1015200.0
648,1015200.0
662,1015200.0
676,1015200.0
690,1015200.0
704,1015200.0
2018,0.0
2069,0.0
2071,0.0
2074,0.0
2076,0.0
2079,0.0
2081,0.0
2084,0.0
2086,0.0
2089,0.0
2091,0.0
2094,0.0
2096,0.0
2099,0.0
2101,0.0
2104,0.0
2,1, 6, 1, 0,18, 0.00,60.00,Monday
7,31.09
8,0.5951918457666666
9,144000.0
82,144000.0
107,144000.0
132,144000.0
157,144000.0
182,144000.0
207,144000.0
232,144000.0
257,0.0
282,0.0
307,0.0
332,0.0
357,0.0
382,0.0
407,0.0
432,0.0
494,280800.0
508,280800.0
522,280800.0
536,280800.0
550,280800.0
564,280800.0
578,280800.0
592,280800.0
606,698400.0
620,698400.0
634,698400.0
648,698400.0
662,698400.0
676,698400.0
690,698400.0
704,698400.0
2018,0.0
2069,0.0
2071,0.0
2074,0.0
2076,0.0
2079,0.0
2081,0.0
2084,0.0
2086,0.0
2089,0.0
2091,0.0
2094,0.0
2096,0.0
2099,0.0
2101,0.0
2104,0.0
2,1, 6, 1, 0,19, 0.00,60.00,Monday
7,30.645000000000004
8,0.5944818351333333
9,288000.0
82,288000.0
107,288000.0
132,288000.0
157,288000.0
182,288000.0
207,288000.0
232,288000.0
257,0.0
282,0.0
307,0.0
332,0.0
357,0.0
382,0.0
407,0.0
432,0.0
494,140400.0
508,140400.0
522,140400.0
536,140400.0
550,140400.0
564,140400.0
578,140400.0
592,140400.0
606,816000.0
620,816000.0
634,816000.0
648,816000.0
662,816000.0
676,816000.0
690,816000.0
704,816000.0
2018,0.0
2069,0.0
2071,0.0
2074,0.0
2076,0.0
2079,0.0
2081,0.0
2084,0.0
2086,0.0
2089,0.0
2091,0.0
2094,0.0
2096,0.0
2099,0.0
2101,0.0
2104,0.0
2,1, 6, 1, 0,20, 0.00,60.00,Monday
7,30.345000000000004
8,0.6488483702166668
9,288000.0
82,288000.0
107,288000.0
132,288000.0
157,288000.0
182,288000.0
207,288000.0
232,288000.0
257,0.0
282,0.0
307,0.0
332,0.0
357,0.0
382,0.0
407,0.0
432,0.0
494,0.0
508,0.0
522,0.0
536,0.0
550,0.0
564,0.0
578,0.0
592,0.0
606,1250400.0
620,1250400.0
634,1250400.0
648,1250400.0
662,1250400.0
676,1250400.0
690,1250400.0
704,1250400.0
2018,0.0
2069,0.0
2071,0.0
2074,0.0
2076,0.0
2079,0.0
2081,0.0
2084,0.0
2086,0.0
2089,0.0
2091,0.0
2094,0.0
2096,0.0
2099,0.0
2101,0.0
2104,0.0
2,1, 6, 1, 0,21, 0.00,60.00,Monday
7,30.09666666666667
8,0.5719643517999999
9,288000.0
82,288000.0
107,288000.0
132,288000.0
157,288000.0
182,288000.0
207,288000.0
232,288000.0
257,144000.0
282,144000.0
307,144000.0
332,144000.0
357,144000.0
382,144000.0
407,144000.0
432,144000.0
494,280800.0
508,280800.0
522,280800.0
536,280800.0
550,280800.0
564,280800.0
578,280800.0
592,280800.0
606,795600.0
620,795600.0
634,795600.0
648,795600.0
662,795600.0
676,795600.0
690,795600.0
704,795600.0
2018,0.0
2069,0.0
2071,0.0
2074,0.0
2076,0.0
2079,0.0
2081,0.0
2084,0.0
2086,0.0
2089,0.0
2091,0.0
2094,0.0
2096,0.0
2099,0.0
2101,0.0
2104,0.0
2,1, 6, 1, 0,22, 0.00,60.00,Monday
7,29.896666666666673
8,0.4367580245666666
9,288000.0
82,288000.0
107,288000.0
132,288000.0
157,288000.0
182,288000.0
207,288000.0
232,288000.0
257,288000.0
282,288000.0
307,288000.0
332,288000.0
357,288000.0
382,288000.0
407,288000.0
432,288000.0
494,280800.0
508,280800.0
522,280800.0
536,280800.0
550,280800.0
564,280800.0
578,280800.0
592,280800.0
606,795600.0
620,795600.0
634,795600.0
648,795600.0
662,795600.0
676,795600.0
690,795600.0
704,795600.0
2018,0.0
2069,0.0
2071,0.0
2074,0.0
2076,0.0
2079,0.0
2081,0.0
2084,0.0
2086,0.0
2089,0.0
2091,0.0
2094,0.0
2096,0.0
2099,0.0
2101,0.0
2104,0.0
2,1, 6, 1, 0,23, 0.00,60.00,Monday
7,29.59333333333333
8,0.4804743992833334
9,288000.0
82,288000.0
107,288000.0
132,288000.0
157,288000.0
182,288000.0
207,288000.0
232,288000.0
257,288000.0
282,288000.0
307,288000.0
332,288000.0
357,288000.0
382,288000.0
407,288000.0
432,288000.0
494,0.0
508,0.0
522,0.0
536,0.0
550,0.0
564,0.0
578,0.0
592,0.0
606,1779600.0
620,1779600.0
634,1779600.0
648,1779600.0
662,1779600.0
676,1779600.0
690,1779600.0
704,1779600.0
2018,0.0
2069,0.0
2071,0.0
2074,0.0
2076,0.0
2079,0.0
2081,0.0
2084,0.0
2086,0.0
2089,0.0
2091,0.0
2094,0.0
2096,0.0
2099,0.0
2101,0.0
2104,0.0
2,1, 6, 1, 0,24, 0.00,60.00,Monday
7,29.928432246499999
8,0.60391483495
9,144000.0
82,144000.0
107,144000.0
132,144000.0
157,144000.0
182,144000.0
207,144000.0
232,144000.0
257,144000.0
282,144000.0
307,144000.0
332,144000.0
357,144000.0
382,144000.0
407,144000.0
432,144000.0
494,0.0
508,0.0
522,0.0
536,0.0
550,0.0
564,0.0
578,0.0
592,0.0
606,381600.0
620,381600.0
634,381600.0
648,381600.0
662,381600.0
676,381600.0
690,381600.0
704,381600.0
2018,22320300.321955876
2069,46167350.31197552
2071,4992544.956237607
2074,10113118.324340949
2076,17526503.869738379
2079,36699508.890059988
2081,4145000.4342801359
2084,8783368.203893163
2086,173064418.95907
2089,370579013.42635068
2091,38533850.558666128
2094,81100194.26752763
2096,134878201.07631005
2099,293401038.07299008
2101,32009245.80502766
2104,70570537.71049018
2,2, 6, 2, 0, 1, 0.00,60.00,Tuesday
7,30.349408177166667
8,0.6262294573666669
9,0.0
82,0.0
107,0.0
132,0.0
157,0.0
182,0.0
207,0.0
232,0.0
257,0.0
282,0.0
307,0.0
332,0.0
357,0.0
382,0.0
407,0.0
432,0.0
494,0.0
508,0.0
522,0.0
536,0.0
550,0.0
564,0.0
578,0.0
592,0.0
606,381600.0
620,381600.0
634,381600.0
648,381600.0
662,381600.0
676,381600.0
690,381600.0
704,381600.0
2018,33048406.69605819
2069,44648834.25379864
2071,7408427.74039607
2074,9727534.916532694
2076,25917474.215506328
2079,35680412.16968412
2081,5901016.27420652
2084,8379811.291310602
2086,247355429.82683445
2089,358405756.0309214
2091,55941969.83715852
2094,78108671.06821195
2096,190153328.9330831
2099,283169780.213296
2101,43114507.743510168
2104,66284584.86638072
2,2, 6, 2, 0, 2, 0.00,60.00,Tuesday
7,30.150357676499998
8,0.6180136188166666
9,0.0
82,0.0
107,0.0
132,0.0
157,0.0
182,0.0
207,0.0
232,0.0
257,0.0
282,0.0
307,0.0
332,0.0
357,0.0
382,0.0
407,0.0
432,0.0
494,0.0
508,0.0
522,0.0
536,0.0
550,0.0
564,0.0
578,0.0
592,0.0
606,381600.0
620,381600.0
634,381600.0
648,381600.0
662,381600.0
676,381600.0
690,381600.0
704,381600.0
2018,29736559.333549087
2069,39483141.47131175
2071,6762457.141099024
2074,8786734.796129503
2076,23496366.981192277
2079,31458052.787789704
2081,5352816.307807537
2084,7323314.537423323
2086,225657816.18595333
2089,311982692.27849277
2091,51822034.39715256
2094,69788218.01513084
2096,174976656.07829593
2099,245415382.39963953
2101,39776822.60209012
2104,57229056.39098396
2,2, 6, 2, 0, 3, 0.00,60.00,Tuesday
7,30.120251894166669
8,0.5859617066666666
9,0.0
82,0.0
107,0.0
132,0.0
157,0.0
182,0.0
207,0.0
232,0.0
257,0.0
282,0.0
307,0.0
332,0.0
357,0.0
382,0.0
407,0.0
432,0.0
494,0.0
508,0.0
522,0.0
536,0.0
550,0.0
564,0.0
578,0.0
592,0.0
606,381600.0
620,381600.0
634,381600.0
648,381600.0
662,381600.0
676,381600.0
690,381600.0
704,381600.0
2018,27102752.062040178
2069,36620643.91076404
2071,6251094.1115166819
2074,8233233.233238896
2076,21527588.883642019
2079,29298049.012606175
2081,4918659.442396952
2084,6839201.60205493
2086,208410398.3438696
2089,292535708.6906027
2091,48588180.05556709
2094,66170002.43617175
2096,162655009.76808746
2099,231152770.3655127
2101,37123106.58447554
2104,54030603.164656218
2,2, 6, 2, 0, 4, 0.00,60.00,Tuesday
7,30.03345648766667
8,0.5697328902166666
9,0.0
82,0.0
107,0.0
132,0.0
157,0.0
182,0.0
207,0.0
232,0.0
257,0.0
282,0.0
307,0.0
332,0.0
357,0.0
382,0.0
407,0.0
432,0.0
494,0.0
508,0.0
522,0.0
536,0.0
550,0.0
564,0.0
578,0.0
592,0.0
606,381600.0
620,381600.0
634,381600.0
648,381600.0
662,381600.0
676,381600.0
690,381600.0
704,381600.0
2018,24830223.35875297
2069,34169716.40402848
2071,5801206.93471433
2074,7750323.0594019549
2076,19812051.342109793
2079,27438370.402243824
2081,4535721.838598462
2084,6419460.118811177
2086,193349644.61607219
2089,275943999.9578294
2091,45723176.65925266
2094,63030712.0640791
2096,151784211.71205507
2099,219055600.5833491
2101,34733467.612470988
2104,51325833.11014157
2,2, 6, 2, 0, 5, 0.00,60.00,Tuesday
7,29.783208016000005
8,0.5966118671999999
9,0.0
82,0.0
107,0.0
132,0.0
157,0.0
182,0.0
207,0.0
232,0.0
257,0.0
282,0.0
307,0.0
332,0.0
357,0.0
382,0.0
407,0.0
432,0.0
494,0.0
508,0.0
522,0.0
536,0.0
550,0.0
564,0.0
578,0.0
592,0.0
606,381600.0
620,381600.0
634,381600.0
648,381600.0
662,381600.0
676,381600.0
690,381600.0
704,381600.0
2018,22797192.902987116
2069,31761979.9282333
2071,5390740.520886414
2074,7265690.347129155
2076,18262039.142723159
2079,25582116.05192379
2081,4184462.5829867545
2084,5991169.388097457
2086,179600284.6020536
2089,258937759.12301249
2091,43064586.50055081
2094,59732477.23422963
2096,141741642.033152
2099,206373418.28940169
2101,32475521.62861023
2104,48406572.54619214
2,2, 6, 2, 0, 6, 0.00,60.00,Tuesday
7,29.824886666
8,0.5238864829166666
9,0.0
82,0.0
107,0.0
132,0.0
157,0.0
182,0.0
207,0.0
232,0.0
257,0.0
282,0.0
307,0.0
332,0.0
357,0.0
382,0.0
407,0.0
432,0.0
494,0.0
508,0.0
522,0.0
536,0.0
550,0.0
564,0.0
578,0.0
592,0.0
606,381600.0
620,381600.0
634,381600.0
648,381600.0
662,381600.0
676,381600.0
690,381600.0
704,381600.0
2018,21096530.32678351
2069,29916927.125813426
2071,5039991.41736482
2074,6889852.979493877
2076,16960149.46381837
2079,24162617.098851324
2081,3888354.1296343009
2084,5663966.137332845
2086,168325141.51117826
2089,246447614.81579427
2091,40858320.009725738
2094,57324131.24605377
2096,133503059.26916412
2099,197154232.57575829
2101,30623512.90019164
2104,46299048.01047418
2,2, 6, 2, 0, 7, 0.00,60.00,Tuesday
7,29.40336162266666
8,0.44091665869999999
9,288000.0
82,288000.0
107,288000.0
132,288000.0
157,288000.0
182,288000.0
207,288000.0
232,288000.0
257,288000.0
282,288000.0
307,288000.0
332,288000.0
357,288000.0
382,288000.0
407,288000.0
432,288000.0
494,0.0
508,0.0
522,0.0
536,0.0
550,0.0
564,0.0
578,0.0
592,0.0
606,1290600.0
620,1290600.0
634,1290600.0
648,1290600.0
662,1290600.0
676,1290600.0
690,1290600.0
704,1290600.0
2018,0.0
2069,0.0
2071,0.0
2074,0.0
2076,0.0
2079,0.0
2081,0.0
2084,0.0
2086,0.0
2089,0.0
2091,0.0
2094,0.0
2096,0.0
2099,0.0
2101,0.0
2104,0.0
2,2, 6, 2, 0, 8, 0.00,60.00,Tuesday
7,29.313333333333334
8,0.4981232371666667
9,0.0
82,0.0
107,0.0
132,0.0
157,0.0
182,0.0
207,0.0
232,0.0
257,0.0
282,0.0
307,0.0
332,0.0
357,0.0
382,0.0
407,0.0
432,0.0
494,0.0
508,0.0
522,0.0
536,0.0
550,0.0
564,0.0
578,0.0
592,0.0
606,2290800.0
620,2290800.0
634,2290800.0
648,2290800.0
662,2290800.0
676,2290800.0
690,2290800.0
704,2290800.0
2018,0.0
2069,0.0
2071,0.0
2074,0.0
2076,0.0
2079,0.0
2081,0.0
2084,0.0
2086,0.0
2089,0.0
2091,0.0
2094,0.0
2096,0.0
2099,0.0
2101,0.0
2104,0.0
2,2, 6, 2, 0, 9, 0.00,60.00,Tuesday
7,30.165
8,0.6416468331833336
9,0.0
82,0.0
107,0.0
132,0.0
157,0.0
182,0.0
207,0.0
232,0.0
257,0.0
282,0.0
307,0.0
332,0.0
357,0.0
382,0.0
407,0.0
432,0.0
494,280800.0
508,280800.0
522,280800.0
536,280800.0
550,280800.0
564,280800.0
578,280800.0
592,280800.0
606,1216800.0
620,1216800.0
634,1216800.0
648,1216800.0
662,1216800.0
676,1216800.0
690,1216800.0
704,1216800.0
2018,0.0
2069,0.0
2071,0.0
2074,0.0
2076,0.0
2079,0.0
2081,0.0
2084,0.0
2086,0.0
2089,0.0
2091,0.0
2094,0.0
2096,0.0
2099,0.0
2101,0.0
2104,0.0
2,2, 6, 2, 0,10, 0.00,60.00,Tuesday
7,31.11666666666667
8,0.7338467970166666
9,0.0
82,0.0
107,0.0
132,0.0
157,0.0
182,0.0
207,0.0
232,0.0
257,0.0
282,0.0
307,0.0
332,0.0
357,0.0
382,0.0
407,0.0
432,0.0
494,280800.0
508,280800.0
522,280800.0
536,280800.0
550,280800.0
564,280800.0
578,280800.0
592,280800.0
606,1015200.0
620,1015200.0
634,1015200.0
648,1015200.0
662,1015200.0
676,1015200.0
690,1015200.0
704,1015200.0
2018,0.0
2069,0.0
2071,0.0
2074,0.0
2076,0.0
2079,0.0
2081,0.0
2084,0.0
2086,0.0
2089,0.0
2091,0.0
2094,0.0
2096,0.0
2099,0.0
2101,0.0
2104,0.0
2,2, 6, 2, 0,11, 0.00,60.00,Tuesday
7,31.96166666666666
8,0.7265438297833334
9,0.0
82,0.0
107,0.0
132,0.0
157,0.0
182,0.0
207,0.0
232,0.0
257,0.0
282,0.0
307,0.0
332,0.0
357,0.0
382,0.0
407,0.0
432,0.0
494,280800.0
508,280800.0
522,280800.0
536,280800.0
550,280800.0
564,280800.0
578,280800.0
592,280800.0
606,1015200.0
620,1015200.0
634,1015200.0
648,1015200.0
662,1015200.0
676,1015200.0
690,1015200.0
704,1015200.0
2018,0.0
2069,0.0
2071,0.0
2074,0.0
2076,0.0
2079,0.0
2081,0.0
2084,0.0
2086,0.0
2089,0.0
2091,0.0
2094,0.0
2096,0.0
2099,0.0
2101,0.0
2104,0.0
2,2, 6, 2, 0,12, 0.00,60.00,Tuesday
7,32.61
8,0.6807988531666668
9,0.0
82,0.0
107,0.0
132,0.0
157,0.0
182,0.0
207,0.0
232,0.0
257,0.0
282,0.0
307,0.0
332,0.0
357,0.0
382,0.0
407,0.0
432,0.0
494,280800.0
508,280800.0
522,280800.0
536,280800.0
550,280800.0
564,280800.0
578,280800.0
592,280800.0
606,1015200.0
620,1015200.0
634,1015200.0
648,1015200.0
662,1015200.0
676,1015200.0
690,1015200.0
704,1015200.0
2018,0.0
2069,0.0
2071,0.0
2074,0.0
2076,0.0
2079,0.0
2081,0.0
2084,0.0
2086,0.0
2089,0.0
2091,0.0
2094,0.0
2096,0.0
2099,0.0
2101,0.0
2104,0.0
2,2, 6, 2, 0,13, 0.00,60.00,Tuesday
7,33.15833333333333
8,0.5912360718333332
9,0.0
82,0.0
107,0.0
132,0.0
157,0.0
182,0.0
207,0.0
232,0.0
257,0.0
282,0.0
307,0.0
332,0.0
357,0.0
382,0.0
407,0.0
432,0.0
494,280800.0
508,280800.0
522,280800.0
536,280800.0
550,280800.0
564,280800.0
578,280800.0
592,280800.0
606,1015200.0
620,1015200.0
634,1015200.0
648,1015200.0
662,1015200.0
676,1015200.0
690,1015200.0
704,1015200.0
2018,0.0
2069,0.0
2071,0.0
2074,0.0
2076,0.0
2079,0.0
2081,0.0
2084,0.0
2086,0.0
2089,0.0
2091,0.0
2094,0.0
2096,0.0
2099,0.0
2101,0.0
2104,0.0
2,2, 6, 2, 0,14, 0.00,60.00,Tuesday
7,33.60666666666666
8,0.5483311381166668
9,0.0
82,0.0
107,0.0
132,0.0
157,0.0
182,0.0
207,0.0
232,0.0
257,0.0
282,0.0
307,0.0
332,0.0
357,0.0
382,0.0
407,0.0
432,0.0
494,280800.0
508,280800.0
522,280800.0
536,280800.0
550,280800.0
564,280800.0
578,280800.0
592,280800.0
606,1015200.0
620,1015200.0
634,1015200.0
648,1015200.0
662,1015200.0
676,1015200.0
690,1015200.0
704,1015200.0
2018,0.0
2069,0.0
2071,0.0
2074,0.0
2076,0.0
2079,0.0
2081,0.0