Program Version,EnergyPlus, Version 9.3.0-baff08990c, YMD=2025.10.29 15:45
1,5,Environment Title[],Latitude[deg],Longitude[deg],Time Zone[],Elevation[m]
2,8,Day of Simulation[],Month[],Day of Month[],DST Indicator[1=yes 0=no],Hour[],StartMinute[],EndMinute[],DayType
3,5,Cumulative Day of Simulation[],Month[],Day of Month[],DST Indicator[1=yes 0=no],DayType  ! When Daily Report Variables Requested
4,2,Cumulative Days of Simulation[],Month[]  ! When Monthly Report Variables Requested
5,1,Cumulative Days of Simulation[] ! When Run Period Report Variables Requested
6,1,Calendar Year of Simulation[] ! When Annual Report Variables Requested
7,1,Environment,Site Outdoor Air Drybulb Temperature [C] !Hourly
8,1,Environment,Site Wind Speed [m/s] !Hourly
9,1,MID_3R_NV_LFT LIGHTING NAC ZONES,Lights Electric Energy [J] !Hourly
82,1,TOP_3R_NV_MID LIGHTING NAC ZONES,Lights Electric Energy [J] !Hourly
107,1,TOP_3R_NV_MID2 LIGHTING NAC ZONES,Lights Electric Energy [J] !Hourly
132,1,TOP_3R_NV_LFT LIGHTING NAC ZONES,Lights Electric Energy [J] !Hourly
157,1,MID_3R_NV_MID2 LIGHTING NAC ZONES,Lights Electric Energy [J] !Hourly
182,1,MID_3R_NV_RHT LIGHTING NAC ZONES,Lights Electric Energy [J] !Hourly
207,1,MID_3R_NV_MID LIGHTING NAC ZONES,Lights Electric Energy [J] !Hourly
232,1,TOP_3R_NV_RHT LIGHTING NAC ZONES,Lights Electric Energy [J] !Hourly
257,1,MID_3R_AC_MID LIGHTING 3-R AC ZONES,Lights Electric Energy [J] !Hourly
282,1,MID_3R_AC_LFT LIGHTING 3-R AC ZONES,Lights Electric Energy [J] !Hourly
307,1,MID_3R_AC_RHT LIGHTING 3-R AC ZONES,Lights Electric Energy [J] !Hourly
332,1,TOP_3R_AC_MID LIGHTING 3-R AC ZONES,Lights Electric Energy [J] !Hourly
357,1,TOP_3R_AC_RHT LIGHTING 3-R AC ZONES,Lights Electric Energy [J] !Hourly
382,1,TOP_3R_AC_LFT LIGHTING 3-R AC ZONES,Lights Electric Energy [J] !Hourly
407,1,MID_3R_AC_MID2 LIGHTING 3-R AC ZONES,Lights Electric Energy [J] !Hourly
432,1,TOP_3R_AC_MID2 LIGHTING 3-R AC ZONES,Lights Electric Energy [J] !Hourly
494,1,MID_3R_AC_MID,Zone Electric Equipment Electric Energy [J] !Hourly
508,1,MID_3R_AC_LFT,Zone Electric Equipment Electric Energy [J] !Hourly
522,1,MID_3R_AC_RHT,Zone Electric Equipment Electric Energy [J] !Hourly
536,1,TOP_3R_AC_MID,Zone Electric Equipment Electric Energy [J] !Hourly
550,1,TOP_3R_AC_RHT,Zone Electric Equipment Electric Energy [J] !Hourly
564,1,TOP_3R_AC_LFT,Zone Electric Equipment Electric Energy [J] !Hourly
578,1,MID_3R_AC_MID2,Zone Electric Equipment Electric Energy [J] !Hourly
592,1,TOP_3R_AC_MID2,Zone Electric Equipment Electric Energy [J] !Hourly
606,1,MID_3R_NV_LFT,Zone Electric Equipment Electric Energy [J] !Hourly
620,1,TOP_3R_NV_MID,Zone Electric Equipment Electric Energy [J] !Hourly
634,1,TOP_3R_NV_MID2,Zone Electric Equipment Electric Energy [J] !Hourly
648,1,TOP_3R_NV_LFT,Zone Electric Equipment Electric Energy [J] !Hourly
662,1,MID_3R_NV_MID2,Zone Electric Equipment Electric Energy [J] !Hourly
676,1,MID_3R_NV_RHT,Zone Electric Equipment Electric Energy [J] !Hourly
690,1,MID_3R_NV_MID,Zone Electric Equipment Electric Energy [J] !Hourly
704,1,TOP_3R_NV_RHT,Zone Electric Equipment Electric Energy [J] !Hourly
2018,1,TOP_3R_AC_MID2 IDEAL LOADS AIR SYSTEM,Zone Ideal Loads Supply Air Sensible Cooling Energy [J] !Hourly
2019,9,TOP_3R_AC_MID2 IDEAL LOADS AIR SYSTEM,Zone Ideal Loads Supply Air Sensible Cooling Energy [J] !Monthly [Value,Min,Day,Hour,Minute,Max,Day,Hour,Minute]
2069,1,TOP_3R_AC_MID2 IDEAL LOADS AIR SYSTEM,Zone Ideal Loads Zone Total Cooling Energy [J] !Hourly
2071,1,TOP_3R_AC_LFT IDEAL LOADS AIR SYSTEM,Zone Ideal Loads Supply Air Sensible Cooling Energy [J] !Hourly
2072,9,TOP_3R_AC_LFT IDEAL LOADS AIR SYSTEM,Zone Ideal Loads Supply Air Sensible Cooling Energy [J] !Monthly [Value,Min,Day,Hour,Minute,Max,Day,Hour,Minute]
2074,1,TOP_3R_AC_LFT IDEAL LOADS AIR SYSTEM,Zone Ideal Loads Zone Total Cooling Energy [J] !Hourly
2076,1,TOP_3R_AC_MID IDEAL LOADS AIR SYSTEM,Zone Ideal Loads Supply Air Sensible Cooling Energy [J] !Hourly
2077,9,TOP_3R_AC_MID IDEAL LOADS AIR SYSTEM,Zone Ideal Loads Supply Air Sensible Cooling Energy [J] !Monthly [Value,Min,Day,Hour,Minute,Max,Day,Hour,Minute]
2079,1,TOP_3R_AC_MID IDEAL LOADS AIR SYSTEM,Zone Ideal Loads Zone Total Cooling Energy [J] !Hourly
2081,1,TOP_3R_AC_RHT IDEAL LOADS AIR SYSTEM,Zone Ideal Loads Supply Air Sensible Cooling Energy [J] !Hourly
2082,9,TOP_3R_AC_RHT IDEAL LOADS AIR SYSTEM,Zone Ideal Loads Supply Air Sensible Cooling Energy [J] !Monthly [Value,Min,Day,Hour,Minute,Max,Day,Hour,Minute]
2084,1,TOP_3R_AC_RHT IDEAL LOADS AIR SYSTEM,Zone Ideal Loads Zone Total Cooling Energy [J] !Hourly
2086,1,MID_3R_AC_MID2 IDEAL LOADS AIR SYSTEM,Zone Ideal Loads Supply Air Sensible Cooling Energy [J] !Hourly
2087,9,MID_3R_AC_MID2 IDEAL LOADS AIR SYSTEM,Zone Ideal Loads Supply Air Sensible Cooling Energy [J] !Monthly [Value,Min,Day,Hour,Minute,Max,Day,Hour,Minute]
2089,1,MID_3R_AC_MID2 IDEAL LOADS AIR SYSTEM,Zone Ideal Loads Zone Total Cooling Energy [J] !Hourly
2091,1,MID_3R_AC_LFT IDEAL LOADS AIR SYSTEM,Zone Ideal Loads Supply Air Sensible Cooling Energy [J] !Hourly
2092,9,MID_3R_AC_LFT IDEAL LOADS AIR SYSTEM,Zone Ideal Loads Supply Air Sensible Cooling Energy [J] !Monthly [Value,Min,Day,Hour,Minute,Max,Day,Hour,Minute]
2094,1,MID_3R_AC_LFT IDEAL LOADS AIR SYSTEM,Zone Ideal Loads Zone Total Cooling Energy [J] !Hourly
2096,1,MID_3R_AC_MID IDEAL LOADS AIR SYSTEM,Zone Ideal Loads Supply Air Sensible Cooling Energy [J] !Hourly
2097,9,MID_3R_AC_MID IDEAL LOADS AIR SYSTEM,Zone Ideal Loads Supply Air Sensible Cooling Energy [J] !Monthly [Value,Min,Day,Hour,Minute,Max,Day,Hour,Minute]
2099,1,MID_3R_AC_MID IDEAL LOADS AIR SYSTEM,Zone Ideal Loads Zone Total Cooling Energy [J] !Hourly
2101,1,MID_3R_AC_RHT IDEAL LOADS AIR SYSTEM,Zone Ideal Loads Supply Air Sensible Cooling Energy [J] !Hourly
2102,9,MID_3R_AC_RHT IDEAL LOADS AIR SYSTEM,Zone Ideal Loads Supply Air Sensible Cooling Energy [J] !Monthly [Value,Min,Day,Hour,Minute,Max,Day,Hour,Minute]
2104,1,MID_3R_AC_RHT IDEAL LOADS AIR SYSTEM,Zone Ideal Loads Zone Total Cooling Energy [J] !Hourly
End of Data Dictionary
1,JUNE2015,   1.37, 103.98,   8.00,  16.00
2,1, 6, 1, 0, 1, 0.00,60.00,Monday
7,30.655452168999998
8,0.4941674630333333
9,0.0
82,0.0
107,0.0
132,0.0
157,0.0
182,0.0
207,0.0
232,0.0
257,0.0
282,0.0
307,0.0
332,0.0
357,0.0
382,0.0
407,0.0
432,0.0
494,0.0
508,0.0
522,0.0
536,0.0
550,0.0
564,0.0
578,0.0
592,0.0
606,381600.0
620,381600.0
634,381600.0
648,381600.0
662,381600.0
676,381600.0
690,381600.0
704,381600.0
2018,33509418.91170459
2069,44963939.760517928
2071,7546720.234016217
2074,9831409.630559873
2076,26113974.985284136
2079,35774045.15325714
2081,5990633.038847116
2084,8439874.303453787
2086,251337498.0037839
2089,361326877.5163415
2091,57056831.297790039
2094,78904012.5077587
2096,191740817.46498714
2099,284035769.23735806
2101,43880266.40841194
2104,66897975.99783093
2,1, 6, 1, 0, 2, 0.00,60.00,Monday
7,31.289303839833335
8,0.2523580967
9,0.0
82,0.0
107,0.0
132,0.0
157,0.0
182,0.0
207,0.0
232,0.0
257,0.0
282,0.0
307,0.0
332,0.0
357,0.0
382,0.0
407,0.0
432,0.0
494,0.0
508,0.0
522,0.0
536,0.0
550,0.0
564,0.0
578,0.0
592,0.0
606,381600.0
620,381600.0
634,381600.0
648,381600.0
662,381600.0
676,381600.0
690,381600.0
704,381600.0
2018,30489706.706151613
2069,40457165.631220567
2071,6959115.687207517
2074,9032220.444810806
2076,23938998.08349434
2079,32071099.306566597
2081,5501149.149730025
2084,7514397.249802245
2086,232370478.5553987
2089,320573116.2232773
2091,53497994.90276284
2094,71877508.02437686
2096,178850015.65753386
2099,250709082.50994665
2101,41089447.65880341
2104,58902356.7869446
2,1, 6, 1, 0, 3, 0.00,60.00,Monday
7,31.693275474333338
8,0.13936496188333334
9,0.0
82,0.0
107,0.0
132,0.0
157,0.0
182,0.0
207,0.0
232,0.0
257,0.0
282,0.0
307,0.0
332,0.0
357,0.0
382,0.0
407,0.0
432,0.0
494,0.0
508,0.0
522,0.0
536,0.0
550,0.0
564,0.0
578,0.0
592,0.0
606,381600.0
620,381600.0
634,381600.0
648,381600.0
662,381600.0
676,381600.0
690,381600.0
704,381600.0
2018,28019806.95162826
2069,38817082.96097655
2071,6488230.858577601
2074,8742022.344682947
2076,22110168.585944334
2079,30920997.795078048
2081,5100198.7742478619
2084,7279117.413969836
2086,216663470.38217739
2089,312024343.3800996
2091,50635165.41627676
2094,70611023.88633755
2096,167824763.52315528
2099,245388017.61386223
2101,38745706.893052149
2104,57906728.895023997
2,1, 6, 1, 0, 4, 0.00,60.00,Monday
7,31.415476577
8,0.13743779001666668
9,0.0
82,0.0
107,0.0
132,0.0
157,0.0
182,0.0
207,0.0
232,0.0
257,0.0
282,0.0
307,0.0
332,0.0
357,0.0
382,0.0
407,0.0
432,0.0
494,0.0
508,0.0
522,0.0
536,0.0
550,0.0
564,0.0
578,0.0
592,0.0
606,381600.0
620,381600.0
634,381600.0
648,381600.0
662,381600.0
676,381600.0
690,381600.0
704,381600.0
2018,25726614.6170007
2069,36571561.05735051
2071,6034398.949244771
2074,8300663.869128867
2076,20362497.107181103
2079,29212968.276404449
2081,4709372.50762133
2084,6898865.0878402939
2086,200921265.12509129
2089,296761956.89135208
2091,47615704.4916729
2094,67719871.29903877
2096,156356028.0172722
2099,234354757.87939037
2101,36179314.14553068
2104,55445761.594190318
2,1, 6, 1, 0, 5, 0.00,60.00,Monday
7,31.023394761499998
8,0.14585648828333334
9,0.0
82,0.0
107,0.0
132,0.0
157,0.0
182,0.0
207,0.0
232,0.0
257,0.0
282,0.0
307,0.0
332,0.0
357,0.0
382,0.0
407,0.0
432,0.0
494,0.0
508,0.0
522,0.0
536,0.0
550,0.0
564,0.0
578,0.0
592,0.0
606,381600.0
620,381600.0
634,381600.0
648,381600.0
662,381600.0
676,381600.0
690,381600.0
704,381600.0
2018,23691438.061999516
2069,34480739.47156822
2071,5627334.423186797
2074,7889928.899145358
2076,18816144.731008039
2079,27628561.458878705
2081,4357605.712162027
2084,6535718.069695589
2086,186773403.2232039
2089,282207955.14232906
2091,44897174.89148582
2094,64997858.343645598
2096,146063113.55453963
2099,223799361.06511215
2101,33830428.36806478
2104,53020693.097773987
2,1, 6, 1, 0, 6, 0.00,60.00,Monday
7,31.14932337216667
8,0.1305405427
9,0.0
82,0.0
107,0.0
132,0.0
157,0.0
182,0.0
207,0.0
232,0.0
257,0.0
282,0.0
307,0.0
332,0.0
357,0.0
382,0.0
407,0.0
432,0.0
494,0.0
508,0.0
522,0.0
536,0.0
550,0.0
564,0.0
578,0.0
592,0.0
606,381600.0
620,381600.0
634,381600.0
648,381600.0
662,381600.0
676,381600.0
690,381600.0
704,381600.0
2018,22074711.417627045
2069,32604533.517186744
2071,5297666.890692285
2074,7503428.766148389
2076,17603549.596469508
2079,26205595.677094725
2081,4082274.2920055554
2084,6210288.983165862
2086,175133835.24514774
2089,268244805.286368
2091,42624907.75754378
2094,62223664.49937885
2096,137739559.90804125
2099,213647926.4862588
2101,31916646.697005273
2104,50657994.70253734
2,1, 6, 1, 0, 7, 0.00,60.00,Monday
7,29.88794638966667
8,0.18774712116666665
9,288000.0
82,288000.0
107,288000.0
132,288000.0
157,288000.0
182,288000.0
207,288000.0
232,288000.0
257,288000.0
282,288000.0
307,288000.0
332,288000.0
357,288000.0
382,288000.0
407,288000.0
432,288000.0
494,0.0
508,0.0
522,0.0
536,0.0
550,0.0
564,0.0
578,0.0
592,0.0
606,1290600.0
620,1290600.0
634,1290600.0
648,1290600.0
662,1290600.0
676,1290600.0
690,1290600.0
704,1290600.0
2018,0.0
2069,0.0
2071,0.0
2074,0.0
2076,0.0
2079,0.0
2081,0.0
2084,0.0
2086,0.0
2089,0.0
2091,0.0
2094,0.0
2096,0.0
2099,0.0
2101,0.0
2104,0.0
2,1, 6, 1, 0, 8, 0.00,60.00,Monday
7,28.91333333333333
8,0.30926038496666666
9,0.0
82,0.0
107,0.0
132,0.0
157,0.0
182,0.0
207,0.0
232,0.0
257,0.0
282,0.0
307,0.0
332,0.0
357,0.0
382,0.0
407,0.0
432,0.0
494,0.0
508,0.0
522,0.0
536,0.0
550,0.0
564,0.0
578,0.0
592,0.0
606,2290800.0
620,2290800.0
634,2290800.0
648,2290800.0
662,2290800.0
676,2290800.0
690,2290800.0
704,2290800.0
2018,0.0
2069,0.0
2071,0.0
2074,0.0
2076,0.0
2079,0.0
2081,0.0
2084,0.0
2086,0.0
2089,0.0
2091,0.0
2094,0.0
2096,0.0
2099,0.0
2101,0.0
2104,0.0
2,1, 6, 1, 0, 9, 0.00,60.00,Monday
7,29.919999999999999
8,0.4374680353666666
9,0.0
82,0.0
107,0.0
132,0.0
157,0.0
182,0.0
207,0.0
232,0.0
257,0.0
282,0.0
307,0.0
332,0.0
357,0.0
382,0.0
407,0.0
432,0.0
494,280800.0
508,280800.0
522,280800.0
536,280800.0
550,280800.0
564,280800.0
578,280800.0
592,280800.0
606,1216800.0
620,1216800.0
634,1216800.0
648,1216800.0
662,1216800.0
676,1216800.0
690,1216800.0
704,1216800.0
2018,0.0
2069,0.0
2071,0.0
2074,0.0
2076,0.0
2079,0.0
2081,0.0
2084,0.0
2086,0.0
2089,0.0
2091,0.0
2094,0.0
2096,0.0
2099,0.0
2101,0.0
2104,0.0
2,1, 6, 1, 0,10, 0.00,60.00,Monday
7,30.964999999999998
8,0.4265135839166666
9,0.0
82,0.0
107,0.0
132,0.0
157,0.0
182,0.0
207,0.0
232,0.0
257,0.0
282,0.0
307,0.0
332,0.0
357,0.0
382,0.0
407,0.0
432,0.0
494,280800.0
508,280800.0
522,280800.0
536,280800.0
550,280800.0
564,280800.0
578,280800.0
592,280800.0
606,1015200.0
620,1015200.0
634,1015200.0
648,1015200.0
662,1015200.0
676,1015200.0
690,1015200.0
704,1015200.0
2018,0.0
2069,0.0
2071,0.0
2074,0.0
2076,0.0
2079,0.0
2081,0.0
2084,0.0
2086,0.0
2089,0.0
2091,0.0
2094,0.0
2096,0.0
2099,0.0
2101,0.0
2104,0.0
2,1, 6, 1, 0,11, 0.00,60.00,Monday
7,31.865000000000003
8,0.3749870917333333
9,0.0
82,0.0
107,0.0
132,0.0
157,0.0
182,0.0
207,0.0
232,0.0
257,0.0
282,0.0
307,0.0
332,0.0
357,0.0
382,0.0
407,0.0
432,0.0
494,280800.0
508,280800.0
522,280800.0
536,280800.0
550,280800.0
564,280800.0
578,280800.0
592,280800.0
606,1015200.0
620,1015200.0
634,1015200.0
648,1015200.0
662,1015200.0
676,1015200.0
690,1015200.0
704,1015200.0
2018,0.0
2069,0.0
2071,0.0
2074,0.0
2076,0.0
2079,0.0
2081,0.0
2084,0.0
2086,0.0
2089,0.0
2091,0.0
2094,0.0
2096,0.0
2099,0.0
2101,0.0
2104,0.0
2,1, 6, 1, 0,12, 0.00,60.00,Monday
7,32.19666666666666
8,0.4301650681333334
9,0.0
82,0.0
107,0.0
132,0.0
157,0.0
182,0.0
207,0.0
232,0.0
257,0.0
282,0.0
307,0.0
332,0.0
357,0.0
382,0.0
407,0.0
432,0.0
494,280800.0
508,280800.0
522,280800.0
536,280800.0
550,280800.0
564,280800.0
578,280800.0
592,280800.0
606,1015200.0
620,1015200.0
634,1015200.0
648,1015200.0
662,1015200.0
676,1015200.0
690,1015200.0
704,1015200.0
2018,0.0
2069,0.0
2071,0.0
2074,0.0
2076,0.0
2079,0.0
2081,0.0
2084,0.0
2086,0.0
2089,0.0
2091,0.0
2094,0.0
2096,0.0
2099,0.0
2101,0.0
2104,0.0
2,1, 6, 1, 0,13, 0.00,60.00,Monday
7,32.66833333333333
8,0.4405109382666667
9,0.0
82,0.0
107,0.0
132,0.0
157,0.0
182,0.0
207,0.0
232,0.0
257,0.0
282,0.0
307,0.0
332,0.0
357,0.0
382,0.0
407,0.0
432,0.0
494,280800.0
508,280800.0
522,280800.0
536,280800.0
550,280800.0
564,280800.0
578,280800.0
592,280800.0
606,1015200.0
620,1015200.0
634,1015200.0
648,1015200.0
662,1015200.0
676,1015200.0
690,1015200.0
704,1015200.0
2018,0.0
2069,0.0
2071,0.0
2074,0.0
2076,0.0
2079,0.0
2081,0.0
2084,0.0
2086,0.0
2089,0.0
2091,0.0
2094,0.0
2096,0.0
2099,0.0
2101,0.0
2104,0.0
2,1, 6, 1, 0,14, 0.00,60.00,Monday
7,32.83833333333333
8,0.4545082926499999
9,0.0
82,0.0
107,0.0
132,0.0
157,0.0
182,0.0
207,0.0
232,0.0
257,0.0
282,0.0
307,0.0
332,0.0
357,0.0
382,0.0
407,0.0
432,0.0
494,280800.0
508,280800.0
522,280800.0
536,280800.0
550,280800.0
564,280800.0
578,280800.0
592,280800.0
606,1015200.0
620,1015200.0
634,1015200.0
648,1015200.0
662,1015200.0
676,1015200.0
690,1015200.0
704,1015200.0
2018,0.0
2069,0.0
2071,0.0
2074,0.0
2076,0.0
2079,0.0
2081,0.0
2084,0.0
2086,0.0
2089,0.0
2091,0.0
2094,0.0
2096,0.0
2099,0.0
2101,0.0
2104,0.0
2,1, 6, 1, 0,15, 0.00,60.00,Monday
7,32.60333333333333
8,0.5340294935333333
9,0.0
82,0.0
107,0.0
132,0.0
157,0.0
182,0.0
207,0.0
232,0.0
257,0.0
282,0.0
307,0.0
332,0.0
357,0.0
382,0.0
407,0.0
432,0.0
494,280800.0
508,280800.0
522,280800.0
536,280800.0
550,280800.0
564,280800.0
578,280800.0
592,280800.0
606,1015200.0
620,1015200.0
634,1015200.0
648,1015200.0
662,1015200.0
676,1015200.0
690,1015200.0
704,1015200.0
2018,0.0
2069,0.0
2071,0.0
2074,0.0
2076,0.0
2079,0.0
2081,0.0
2084,0.0
2086,0.0
2089,0.0
2091,0.0
2094,0.0
2096,0.0
2099,0.0
2101,0.0
2104,0.0
2,1, 6, 1, 0,16, 0.00,60.00,Monday
7,32.70000000000002
8,0.61588358675
9,0.0
82,0.0
107,0.0
132,0.0
157,0.0
182,0.0
207,0.0
232,0.0
257,0.0
282,0.0
307,0.0
332,0.0
357,0.0
382,0.0
407,0.0
432,0.0
494,280800.0
508,280800.0
522,280800.0
536,280800.0
550,280800.0
564,280800.0
578,280800.0
592,280800.0
606,1015200.0
620,1015200.0
634,1015200.0
648,1015200.0
662,1015200.0
676,1015200.0
690,1015200.0
704,1015200.0
2018,0.0
2069,0.0
2071,0.0
2074,0.0
2076,0.0
2079,0.0
2081,0.0
2084,0.0
2086,0.0
2089,0.0
2091,0.0
2094,0.0
2096,0.0
2099,0.0
2101,0.0
2104,0.0
2,1, 6, 1, 0,17, 0.00,60.00,Monday
7,32.028333333333339
8,0.6417482631833332
9,0.0
82,0.0
107,0.0
132,0.0
157,0.0
182,0.0
207,0.0
232,0.0
257,0.0
282,0.0
307,0.0
332,0.0
357,0.0
382,0.0
407,0.0
432,0.0
494,280800.0
508,280800.0
522,280800.0
536,280800.0
550,280800.0
564,280800.0
578,280800.0
592,280800.0
606,1015200.0
620,1015200.0
634,1015200.0
648,1015200.0
662,1015200.0
676,1015200.0
690,1015200.0
704,1015200.0
2018,0.0
2069,0.0
2071,0.0
2074,0.0
2076,0.0
2079,0.0
2081,0.0
2084,0.0
2086,0.0
2089,0.0
2091,0.0
2094,0.0
2096,0.0
2099,0.0
2101,0.0
2104,0.0
2,1, 6, 1, 0,18, 0.00,60.00,Monday
7,31.09
8,0.5951918457666666
9,144000.0
82,144000.0
107,144000.0
132,144000.0
157,144000.0
182,144000.0
207,144000.0
232,144000.0
257,0.0
282,0.0
307,0.0
332,0.0
357,0.0
382,0.0
407,0.0
432,0.0
494,280800.0
508,280800.0
522,280800.0
536,280800.0
550,280800.0
564,280800.0
578,280800.0
592,280800.0
606,698400.0
620,698400.0
634,698400.0
648,698400.0
662,698400.0
676,698400.0
690,698400.0
704,698400.0
2018,0.0
2069,0.0
2071,0.0
2074,0.0
2076,0.0
2079,0.0
2081,0.0
2084,0.0
2086,0.0
2089,0.0
2091,0.0
2094,0.0
2096,0.0
2099,0.0
2101,0.0
2104,0.0
2,1, 6, 1, 0,19, 0.00,60.00,Monday
7,30.645000000000004
8,0.5944818351333333
9,288000.0
82,288000.0
107,288000.0
132,288000.0
157,288000.0
182,288000.0
207,288000.0
232,288000.0
257,0.0
282,0.0
307,0.0
332,0.0
357,0.0
382,0.0
407,0.0
432,0.0
494,140400.0
508,140400.0
522,140400.0
536,140400.0
550,140400.0
564,140400.0
578,140400.0
592,140400.0
606,816000.0
620,816000.0
634,816000.0
648,816000.0
662,816000.0
676,816000.0
690,816000.0
704,816000.0
2018,0.0
2069,0.0
2071,0.0
2074,0.0
2076,0.0
2079,0.0
2081,0.0
2084,0.0
2086,0.0
2089,0.0
2091,0.0
2094,0.0
2096,0.0
2099,0.0
2101,0.0
2104,0.0
2,1, 6, 1, 0,20, 0.00,60.00,Monday
7,30.345000000000004
8,0.6488483702166668
9,288000.0
82,288000.0
107,288000.0
132,288000.0
157,288000.0
182,288000.0
207,288000.0
232,288000.0
257,0.0
282,0.0
307,0.0
332,0.0
357,0.0
382,0.0
407,0.0
432,0.0
494,0.0
508,0.0
522,0.0
536,0.0
550,0.0
564,0.0
578,0.0
592,0.0
606,1250400.0
620,1250400.0
634,1250400.0
648,1250400.0
662,1250400.0
676,1250400.0
690,1250400.0
704,1250400.0
2018,0.0
2069,0.0
2071,0.0
2074,0.0
2076,0.0
2079,0.0
2081,0.0
2084,0.0
2086,0.0
2089,0.0
2091,0.0
2094,0.0
2096,0.0
2099,0.0
2101,0.0
2104,0.0
2,1, 6, 1, 0,21, 0.00,60.00,Monday
7,30.09666666666667
8,0.5719643517999999
9,288000.0
82,288000.0
107,288000.0
132,288000.0
157,288000.0
182,288000.0
207,288000.0
232,288000.0
257,144000.0
282,144000.0
307,144000.0
332,144000.0
357,144000.0
382,144000.0
407,144000.0
432,144000.0
494,280800.0
508,280800.0
522,280800.0
536,280800.0
550,280800.0
564,280800.0
578,280800.0
592,280800.0
606,795600.0
620,795600.0
634,795600.0
648,795600.0
662,795600.0
676,795600.0
690,795600.0
704,795600.0
2018,0.0
2069,0.0
2071,0.0
2074,0.0
2076,0.0
2079,0.0
2081,0.0
2084,0.0
2086,0.0
2089,0.0
2091,0.0
2094,0.0
2096,0.0
2099,0.0
2101,0.0
2104,0.0
2,1, 6, 1, 0,22, 0.00,60.00,Monday
7,29.896666666666673
8,0.4367580245666666
9,288000.0
82,288000.0
107,288000.0
132,288000.0
157,288000.0
182,288000.0
207,288000.0
232,288000.0
257,288000.0
282,288000.0
307,288000.0
332,288000.0
357,288000.0
382,288000.0
407,288000.0
432,288000.0
494,280800.0
508,280800.0
522,280800.0
536,280800.0
550,280800.0
564,280800.0
578,280800.0
592,280800.0
606,795600.0
620,795600.0
634,795600.0
648,795600.0
662,795600.0
676,795600.0
690,795600.0
704,795600.0
2018,0.0
2069,0.0
2071,0.0
2074,0.0
2076,0.0
2079,0.0
2081,0.0
2084,0.0
2086,0.0
2089,0.0
2091,0.0
2094,0.0
2096,0.0
2099,0.0
2101,0.0
2104,0.0
2,1, 6, 1, 0,23, 0.00,60.00,Monday
7,29.59333333333333
8,0.4804743992833334
9,288000.0
82,288000.0
107,288000.0
132,288000.0
157,288000.0
182,288000.0
207,288000.0
232,288000.0
257,288000.0
282,288000.0
307,288000.0
332,288000.0
357,288000.0
382,288000.0
407,288000.0
432,288000.0
494,0.0
508,0.0
522,0.0
536,0.0
550,0.0
564,0.0
578,0.0
592,0.0
606,1779600.0
620,1779600.0
634,1779600.0
648,1779600.0
662,1779600.0
676,1779600.0
690,1779600.0
704,1779600.0
2018,0.0
2069,0.0
2071,0.0
2074,0.0
2076,0.0
2079,0.0
2081,0.0
2084,0.0
2086,0.0
2089,0.0
2091,0.0
2094,0.0
2096,0.0
2099,0.0
2101,0.0
2104,0.0
2,1, 6, 1, 0,24, 0.00,60.00,Monday
7,29.928432246499999
8,0.60391483495
9,144000.0
82,144000.0
107,144000.0
132,144000.0
157,144000.0
182,144000.0
207,144000.0
232,144000.0
257,144000.0
282,144000.0
307,144000.0
332,144000.0
357,144000.0
382,144000.0
407,144000.0
432,144000.0
494,0.0
508,0.0
522,0.0
536,0.0
550,0.0
564,0.0
578,0.0
592,0.0
606,381600.0
620,381600.0
634,381600.0
648,381600.0
662,381600.0
676,381600.0
690,381600.0
704,381600.0
2018,22548048.33302202
2069,46516271.7827922
2071,5065940.05438249
2074,10221003.698443432
2076,17624608.005864007
2079,36858349.946377698
2081,4189488.783607727
2084,8857091.107635528
2086,174667653.1399117
2089,373252899.3283533
2091,39174819.12143945
2094,82160931.75054688
2096,135656046.5950841
2099,294606568.6119688
2101,32348202.334154574
2104,71100118.78565908
2,2, 6, 2, 0, 1, 0.00,60.00,Tuesday
7,30.349408177166667
8,0.6262294573666669
9,0.0
82,0.0
107,0.0
132,0.0
157,0.0
182,0.0
207,0.0
232,0.0
257,0.0
282,0.0
307,0.0
332,0.0
357,0.0
382,0.0
407,0.0
432,0.0
494,0.0
508,0.0
522,0.0
536,0.0
550,0.0
564,0.0
578,0.0
592,0.0
606,381600.0
620,381600.0
634,381600.0
648,381600.0
662,381600.0
676,381600.0
690,381600.0
704,381600.0
2018,33450993.98266678
2069,45011629.83316035
2071,7536182.292646511
2074,9844451.368461973
2076,26089406.844353476
2079,35829872.68228396
2081,5978171.007228218
2084,8446611.193620554
2086,250898178.4034081
2089,361727863.7454368
2091,57073817.415812898
2094,79082981.38486888
2096,191712282.24347029
2099,284634968.60827746
2101,43795566.04310226
2104,66964912.32667872
2,2, 6, 2, 0, 2, 0.00,60.00,Tuesday
7,30.150357676499998
8,0.6180136188166666
9,0.0
82,0.0
107,0.0
132,0.0
157,0.0
182,0.0
207,0.0
232,0.0
257,0.0
282,0.0
307,0.0
332,0.0
357,0.0
382,0.0
407,0.0
432,0.0
494,0.0
508,0.0
522,0.0
536,0.0
550,0.0
564,0.0
578,0.0
592,0.0
606,381600.0
620,381600.0
634,381600.0
648,381600.0
662,381600.0
676,381600.0
690,381600.0
704,381600.0
2018,30097313.166080014
2069,39856680.97911638
2071,6877768.20242573
2074,8905431.97056359
2076,23649374.97170064
2079,31616514.90098685
2081,5421948.980915931
2084,7395229.136436114
2086,228906899.59315048
2089,315371900.484144
2091,52872404.44878182
2094,70876920.26191257
2096,176413841.71986223
2099,246912907.6168036
2101,40399765.85658148
2104,57877595.40612967
2,2, 6, 2, 0, 3, 0.00,60.00,Tuesday
7,30.120251894166669
8,0.5859617066666666
9,0.0
82,0.0
107,0.0
132,0.0
157,0.0
182,0.0
207,0.0
232,0.0
257,0.0
282,0.0
307,0.0
332,0.0
357,0.0
382,0.0
407,0.0
432,0.0
494,0.0
508,0.0
522,0.0
536,0.0
550,0.0
564,0.0
578,0.0
592,0.0
606,381600.0
620,381600.0
634,381600.0
648,381600.0
662,381600.0
676,381600.0
690,381600.0
704,381600.0
2018,27428023.012152587
2069,36959911.056529778
2071,6355848.467050878
2074,8341570.967459291
2076,21664519.73687583
2079,29441083.824394924
2081,4981120.607105294
2084,6904918.571568296
2086,211400709.91505579
2089,295693225.8280006
2091,49567318.3192056
2094,67192403.3392255
2096,163983570.1308862
2099,232561759.29664067
2101,37696785.14137529
2104,54643496.39407366
2,2, 6, 2, 0, 4, 0.00,60.00,Tuesday
7,30.03345648766667
8,0.5697328902166666
9,0.0
82,0.0
107,0.0
132,0.0
157,0.0
182,0.0
207,0.0
232,0.0
257,0.0
282,0.0
307,0.0
332,0.0
357,0.0
382,0.0
407,0.0
432,0.0
494,0.0
508,0.0
522,0.0
536,0.0
550,0.0
564,0.0
578,0.0
592,0.0
606,381600.0
620,381600.0
634,381600.0
648,381600.0
662,381600.0
676,381600.0
690,381600.0
704,381600.0
2018,25124523.641362508
2069,34478304.87015165
2071,5896656.841751339
2074,7849371.397271906
2076,19935143.820720205
2079,27567636.84564059
2081,4592401.335621501
2084,6479470.905074019
2086,196105573.51760916
2089,278871015.930586
2091,46637088.79227495
2094,63988246.19823675
2096,153014134.88934524
2099,220367927.74485494
2101,35263016.4767798
2104,51895817.84039448
2,2, 6, 2, 0, 5, 0.00,60.00,Tuesday
7,29.783208016000005
8,0.5966118671999999
9,0.0
82,0.0
107,0.0
132,0.0
157,0.0
182,0.0
207,0.0
232,0.0
257,0.0
282,0.0
307,0.0
332,0.0
357,0.0
382,0.0
407,0.0
432,0.0
494,0.0
508,0.0
522,0.0
536,0.0
550,0.0
564,0.0
578,0.0
592,0.0
606,381600.0
620,381600.0
634,381600.0
648,381600.0
662,381600.0
676,381600.0
690,381600.0
704,381600.0
2018,23064289.37305861
2069,32043441.306166635
2071,5477936.325932363
2074,7356480.72319872
2076,18373155.80060186
2079,25699374.505927475
2081,4236074.895050608
2084,6046111.761751296
2086,182143562.35546286
2089,261651328.46776269
2091,43918562.845506828
2094,60629645.00609093
2096,142881815.2938136
2099,207595193.6316775
2101,32965200.07125858
2104,48936167.516274388
2,2, 6, 2, 0, 6, 0.00,60.00,Tuesday
7,29.824886666
8,0.5238864829166666
9,0.0
82,0.0
107,0.0
132,0.0
157,0.0
182,0.0
207,0.0
232,0.0
257,0.0
282,0.0
307,0.0
332,0.0
357,0.0
382,0.0
407,0.0
432,0.0
494,0.0
508,0.0
522,0.0
536,0.0
550,0.0
564,0.0
578,0.0
592,0.0
606,381600.0
620,381600.0
634,381600.0
648,381600.0
662,381600.0
676,381600.0
690,381600.0
704,381600.0
2018,21339681.337291447
2069,30175190.80571139
2071,5119805.6328769209
2074,6973431.852595678
2076,17060886.606127956
2079,24269773.903803387
2081,3935504.450482053
2084,5714606.779030869
2086,170675977.85815618
2089,248975197.59443326
2091,41656698.67963329
2094,58167217.346492249
2096,134561815.2449868
2099,198297416.80440039
2101,31077156.262623725
2104,46793765.25528059
2,2, 6, 2, 0, 7, 0.00,60.00,Tuesday
7,29.40336162266666
8,0.44091665869999999
9,288000.0
82,288000.0
107,288000.0
132,288000.0
157,288000.0
182,288000.0
207,288000.0
232,288000.0
257,288000.0
282,288000.0
307,288000.0
332,288000.0
357,288000.0
382,288000.0
407,288000.0
432,288000.0
494,0.0
508,0.0
522,0.0
536,0.0
550,0.0
564,0.0
578,0.0
592,0.0
606,1290600.0
620,1290600.0
634,1290600.0
648,1290600.0
662,1290600.0
676,1290600.0
690,1290600.0
704,1290600.0
2018,0.0
2069,0.0
2071,0.0
2074,0.0
2076,0.0
2079,0.0
2081,0.0
2084,0.0
2086,0.0
2089,0.0
2091,0.0
2094,0.0
2096,0.0
2099,0.0
2101,0.0
2104,0.0
2,2, 6, 2, 0, 8, 0.00,60.00,Tuesday
7,29.313333333333334
8,0.4981232371666667
9,0.0
82,0.0
107,0.0
132,0.0
157,0.0
182,0.0
207,0.0
232,0.0
257,0.0
282,0.0
307,0.0
332,0.0
357,0.0
382,0.0
407,0.0
432,0.0
494,0.0
508,0.0
522,0.0
536,0.0
550,0.0
564,0.0
578,0.0
592,0.0
606,2290800.0
620,2290800.0
634,2290800.0
648,2290800.0
662,2290800.0
676,2290800.0
690,2290800.0
704,2290800.0
2018,0.0
2069,0.0
2071,0.0
2074,0.0
2076,0.0
2079,0.0
2081,0.0
2084,0.0
2086,0.0
2089,0.0
2091,0.0
2094,0.0
2096,0.0
2099,0.0
2101,0.0
2104,0.0
2,2, 6, 2, 0, 9, 0.00,60.00,Tuesday
7,30.165
8,0.6416468331833336
9,0.0
82,0.0
107,0.0
132,0.0
157,0.0
182,0.0
207,0.0
232,0.0
257,0.0
282,0.0
307,0.0
332,0.0
357,0.0
382,0.0
407,0.0
432,0.0
494,280800.0
508,280800.0
522,280800.0
536,280800.0
550,280800.0
564,280800.0
578,280800.0
592,280800.0
606,1216800.0
620,1216800.0
634,1216800.0
648,1216800.0
662,1216800.0
676,1216800.0
690,1216800.0
704,1216800.0
2018,0.0
2069,0.0
2071,0.0
2074,0.0
2076,0.0
2079,0.0
2081,0.0
2084,0.0
2086,0.0
2089,0.0
2091,0.0
2094,0.0
2096,0.0
2099,0.0
2101,0.0
2104,0.0
2,2, 6, 2, 0,10, 0.00,60.00,Tuesday
7,31.11666666666667
8,0.7338467970166666
9,0.0
82,0.0
107,0.0
132,0.0
157,0.0
182,0.0
207,0.0
232,0.0
257,0.0
282,0.0
307,0.0
332,0.0
357,0.0
382,0.0
407,0.0
432,0.0
494,280800.0
508,280800.0
522,280800.0
536,280800.0
550,280800.0
564,280800.0
578,280800.0
592,280800.0
606,1015200.0
620,1015200.0
634,1015200.0
648,1015200.0
662,1015200.0
676,1015200.0
690,1015200.0
704,1015200.0
2018,0.0
2069,0.0
2071,0.0
2074,0.0
2076,0.0
2079,0.0
2081,0.0
2084,0.0
2086,0.0
2089,0.0
2091,0.0
2094,0.0
2096,0.0
2099,0.0
2101,0.0
2104,0.0
2,2, 6, 2, 0,11, 0.00,60.00,Tuesday
7,31.96166666666666
8,0.7265438297833334
9,0.0
82,0.0
107,0.0
132,0.0
157,0.0
182,0.0
207,0.0
232,0.0
257,0.0
282,0.0
307,0.0
332,0.0
357,0.0
382,0.0
407,0.0
432,0.0
494,280800.0
508,280800.0
522,280800.0
536,280800.0
550,280800.0
564,280800.0
578,280800.0
592,280800.0
606,1015200.0
620,1015200.0
634,1015200.0
648,1015200.0
662,1015200.0
676,1015200.0
690,1015200.0
704,1015200.0
2018,0.0
2069,0.0
2071,0.0
2074,0.0
2076,0.0
2079,0.0
2081,0.0
2084,0.0
2086,0.0
2089,0.0
2091,0.0
2094,0.0
2096,0.0
2099,0.0
2101,0.0
2104,0.0
2,2, 6, 2, 0,12, 0.00,60.00,Tuesday
7,32.61
8,0.6807988531666668
9,0.0
82,0.0
107,0.0
132,0.0
157,0.0
182,0.0
207,0.0
232,0.0
257,0.0
282,0.0
307,0.0
332,0.0
357,0.0
382,0.0
407,0.0
432,0.0
494,280800.0
508,280800.0
522,280800.0
536,280800.0
550,280800.0
564,280800.0
578,280800.0
592,280800.0
606,1015200.0
620,1015200.0
634,1015200.0
648,1015200.0
662,1015200.0
676,1015200.0
690,1015200.0
704,1015200.0
2018,0.0
2069,0.0
2071,0.0
2074,0.0
2076,0.0
2079,0.0
2081,0.0
2084,0.0
2086,0.0
2089,0.0
2091,0.0
2094,0.0
2096,0.0
2099,0.0
2101,0.0
2104,0.0
2,2, 6, 2, 0,13, 0.00,60.00,Tuesday
7,33.15833333333333
8,0.5912360718333332
9,0.0
82,0.0
107,0.0
132,0.0
157,0.0
182,0.0
207,0.0
232,0.0
257,0.0
282,0.0
307,0.0
332,0.0
357,0.0
382,0.0
407,0.0
432,0.0
494,280800.0
508,280800.0
522,280800.0
536,280800.0
550,280800.0
564,280800.0
578,280800.0
592,280800.0
606,1015200.0
620,1015200.0
634,1015200.0
648,1015200.0
662,1015200.0
676,1015200.0
690,1015200.0
704,1015200.0
2018,0.0
2069,0.0
2071,0.0
2074,0.0
2076,0.0
2079,0.0
2081,0.0
2084,0.0
2086,0.0
2089,0.0
2091,0.0
2094,0.0
2096,0.0
2099,0.0
2101,0.0
2104,0.0
2,2, 6, 2, 0,14, 0.00,60.00,Tuesday
7,33.60666666666666
8,0.5483311381166668
9,0.0
82,0.0
107,0.0
132,0.0
157,0.0
182,0.0
207,0.0
232,0.0
257,0.0
282,0.0
307,0.0
332,0.0
357,0.0
382,0.0
407,0.0
432,0.0
494,280800.0
508,280800.0
522,280800.0
536,280800.0
550,280800.0
564,280800.0
578,280800.0
592,280800.0
606,1015200.0
620,1015200.0
634,1015200.0
648,1015200.0
662,1015200.0
676,1015200.0
690,1015200.0
704,1015200.0
2018,0.0
2069,0.0
2071,0.0
2074,0.0
2076,0.0
2079,0.0
2081,0.0
2084,0.0