Program Version,EnergyPlus, Version 9.3.0-baff08990c, YMD=2025.12.15 17:37
1,5,Environment Title[],Latitude[deg],Longitude[deg],Time Zone[],Elevation[m]
2,8,Day of Simulation[],Month[],Day of Month[],DST Indicator[1=yes 0=no],Hour[],StartMinute[],EndMinute[],DayType
3,5,Cumulative Day of Simulation[],Month[],Day of Month[],DST Indicator[1=yes 0=no],DayType  ! When Daily Report Variables Requested
4,2,Cumulative Days of Simulation[],Month[]  ! When Monthly Report Variables Requested
5,1,Cumulative Days of Simulation[] ! When Run Period Report Variables Requested
6,1,Calendar Year of Simulation[] ! When Annual Report Variables Requested
735,9,A15EF2,Surface Outside Face Incident Solar Radiation Rate per Area [W/m2] !Monthly [Value,Min,Day,Hour,Minute,Max,Day,Hour,Minute]
736,9,F0171B,Surface Outside Face Incident Solar Radiation Rate per Area [W/m2] !Monthly [Value,Min,Day,Hour,Minute,Max,Day,Hour,Minute]
737,9,E34B53,Surface Outside Face Incident Solar Radiation Rate per Area [W/m2] !Monthly [Value,Min,Day,Hour,Minute,Max,Day,Hour,Minute]
738,9,EB381E,Surface Outside Face Incident Solar Radiation Rate per Area [W/m2] !Monthly [Value,Min,Day,Hour,Minute,Max,Day,Hour,Minute]
739,9,4BBE32,Surface Outside Face Incident Solar Radiation Rate per Area [W/m2] !Monthly [Value,Min,Day,Hour,Minute,Max,Day,Hour,Minute]
740,9,92B573,Surface Outside Face Incident Solar Radiation Rate per Area [W/m2] !Monthly [Value,Min,Day,Hour,Minute,Max,Day,Hour,Minute]
741,9,127502,Surface Outside Face Incident Solar Radiation Rate per Area [W/m2] !Monthly [Value,Min,Day,Hour,Minute,Max,Day,Hour,Minute]
742,9,1432F0,Surface Outside Face Incident Solar Radiation Rate per Area [W/m2] !Monthly [Value,Min,Day,Hour,Minute,Max,Day,Hour,Minute]
743,9,9B19D6,Surface Outside Face Incident Solar Radiation Rate per Area [W/m2] !Monthly [Value,Min,Day,Hour,Minute,Max,Day,Hour,Minute]
744,9,9BDED2,Surface Outside Face Incident Solar Radiation Rate per Area [W/m2] !Monthly [Value,Min,Day,Hour,Minute,Max,Day,Hour,Minute]
745,9,EB9560,Surface Outside Face Incident Solar Radiation Rate per Area [W/m2] !Monthly [Value,Min,Day,Hour,Minute,Max,Day,Hour,Minute]
746,9,49FCED,Surface Outside Face Incident Solar Radiation Rate per Area [W/m2] !Monthly [Value,Min,Day,Hour,Minute,Max,Day,Hour,Minute]
747,9,DFBD24,Surface Outside Face Incident Solar Radiation Rate per Area [W/m2] !Monthly [Value,Min,Day,Hour,Minute,Max,Day,Hour,Minute]
748,9,A8D3AE,Surface Outside Face Incident Solar Radiation Rate per Area [W/m2] !Monthly [Value,Min,Day,Hour,Minute,Max,Day,Hour,Minute]
749,9,965308,Surface Outside Face Incident Solar Radiation Rate per Area [W/m2] !Monthly [Value,Min,Day,Hour,Minute,Max,Day,Hour,Minute]
750,9,7807BB,Surface Outside Face Incident Solar Radiation Rate per Area [W/m2] !Monthly [Value,Min,Day,Hour,Minute,Max,Day,Hour,Minute]
751,9,17D3BF,Surface Outside Face Incident Solar Radiation Rate per Area [W/m2] !Monthly [Value,Min,Day,Hour,Minute,Max,Day,Hour,Minute]
752,9,E9194B,Surface Outside Face Incident Solar Radiation Rate per Area [W/m2] !Monthly [Value,Min,Day,Hour,Minute,Max,Day,Hour,Minute]
753,9,DC887A,Surface Outside Face Incident Solar Radiation Rate per Area [W/m2] !Monthly [Value,Min,Day,Hour,Minute,Max,Day,Hour,Minute]
754,9,FF7408,Surface Outside Face Incident Solar Radiation Rate per Area [W/m2] !Monthly [Value,Min,Day,Hour,Minute,Max,Day,Hour,Minute]
755,9,42F015,Surface Outside Face Incident Solar Radiation Rate per Area [W/m2] !Monthly [Value,Min,Day,Hour,Minute,Max,Day,Hour,Minute]
756,9,5C02CA,Surface Outside Face Incident Solar Radiation Rate per Area [W/m2] !Monthly [Value,Min,Day,Hour,Minute,Max,Day,Hour,Minute]
757,9,EFE5C8,Surface Outside Face Incident Solar Radiation Rate per Area [W/m2] !Monthly [Value,Min,Day,Hour,Minute,Max,Day,Hour,Minute]
758,9,BD6CAC,Surface Outside Face Incident Solar Radiation Rate per Area [W/m2] !Monthly [Value,Min,Day,Hour,Minute,Max,Day,Hour,Minute]
759,9,F6C20E,Surface Outside Face Incident Solar Radiation Rate per Area [W/m2] !Monthly [Value,Min,Day,Hour,Minute,Max,Day,Hour,Minute]
760,9,C6D9BB,Surface Outside Face Incident Solar Radiation Rate per Area [W/m2] !Monthly [Value,Min,Day,Hour,Minute,Max,Day,Hour,Minute]
761,9,589F6F,Surface Outside Face Incident Solar Radiation Rate per Area [W/m2] !Monthly [Value,Min,Day,Hour,Minute,Max,Day,Hour,Minute]
762,9,555196,Surface Outside Face Incident Solar Radiation Rate per Area [W/m2] !Monthly [Value,Min,Day,Hour,Minute,Max,Day,Hour,Minute]
763,9,C6AAEF,Surface Outside Face Incident Solar Radiation Rate per Area [W/m2] !Monthly [Value,Min,Day,Hour,Minute,Max,Day,Hour,Minute]
764,9,D0B56C,Surface Outside Face Incident Solar Radiation Rate per Area [W/m2] !Monthly [Value,Min,Day,Hour,Minute,Max,Day,Hour,Minute]
765,9,13A266,Surface Outside Face Incident Solar Radiation Rate per Area [W/m2] !Monthly [Value,Min,Day,Hour,Minute,Max,Day,Hour,Minute]
766,9,3CC912,Surface Outside Face Incident Solar Radiation Rate per Area [W/m2] !Monthly [Value,Min,Day,Hour,Minute,Max,Day,Hour,Minute]
767,9,EE77B9,Surface Outside Face Incident Solar Radiation Rate per Area [W/m2] !Monthly [Value,Min,Day,Hour,Minute,Max,Day,Hour,Minute]
768,9,DAB157,Surface Outside Face Incident Solar Radiation Rate per Area [W/m2] !Monthly [Value,Min,Day,Hour,Minute,Max,Day,Hour,Minute]
769,9,B56771,Surface Outside Face Incident Solar Radiation Rate per Area [W/m2] !Monthly [Value,Min,Day,Hour,Minute,Max,Day,Hour,Minute]
770,9,8ECBCC,Surface Outside Face Incident Solar Radiation Rate per Area [W/m2] !Monthly [Value,Min,Day,Hour,Minute,Max,Day,Hour,Minute]
771,9,421611,Surface Outside Face Incident Solar Radiation Rate per Area [W/m2] !Monthly [Value,Min,Day,Hour,Minute,Max,Day,Hour,Minute]
772,9,A5E1A8,Surface Outside Face Incident Solar Radiation Rate per Area [W/m2] !Monthly [Value,Min,Day,Hour,Minute,Max,Day,Hour,Minute]
773,9,3B958D,Surface Outside Face Incident Solar Radiation Rate per Area [W/m2] !Monthly [Value,Min,Day,Hour,Minute,Max,Day,Hour,Minute]
774,9,EF34E7,Surface Outside Face Incident Solar Radiation Rate per Area [W/m2] !Monthly [Value,Min,Day,Hour,Minute,Max,Day,Hour,Minute]
775,9,1B0191,Surface Outside Face Incident Solar Radiation Rate per Area [W/m2] !Monthly [Value,Min,Day,Hour,Minute,Max,Day,Hour,Minute]
776,9,D919F4,Surface Outside Face Incident Solar Radiation Rate per Area [W/m2] !Monthly [Value,Min,Day,Hour,Minute,Max,Day,Hour,Minute]
777,9,118ABE,Surface Outside Face Incident Solar Radiation Rate per Area [W/m2] !Monthly [Value,Min,Day,Hour,Minute,Max,Day,Hour,Minute]
778,9,93BADA,Surface Outside Face Incident Solar Radiation Rate per Area [W/m2] !Monthly [Value,Min,Day,Hour,Minute,Max,Day,Hour,Minute]
779,9,3C0ECF,Surface Outside Face Incident Solar Radiation Rate per Area [W/m2] !Monthly [Value,Min,Day,Hour,Minute,Max,Day,Hour,Minute]
780,9,A11C91,Surface Outside Face Incident Solar Radiation Rate per Area [W/m2] !Monthly [Value,Min,Day,Hour,Minute,Max,Day,Hour,Minute]
781,9,8C7F16,Surface Outside Face Incident Solar Radiation Rate per Area [W/m2] !Monthly [Value,Min,Day,Hour,Minute,Max,Day,Hour,Minute]
782,9,E012F6,Surface Outside Face Incident Solar Radiation Rate per Area [W/m2] !Monthly [Value,Min,Day,Hour,Minute,Max,Day,Hour,Minute]
783,9,37ACDC,Surface Outside Face Incident Solar Radiation Rate per Area [W/m2] !Monthly [Value,Min,Day,Hour,Minute,Max,Day,Hour,Minute]
784,9,C7CB71,Surface Outside Face Incident Solar Radiation Rate per Area [W/m2] !Monthly [Value,Min,Day,Hour,Minute,Max,Day,Hour,Minute]
785,9,BB530D,Surface Outside Face Incident Solar Radiation Rate per Area [W/m2] !Monthly [Value,Min,Day,Hour,Minute,Max,Day,Hour,Minute]
786,9,825422,Surface Outside Face Incident Solar Radiation Rate per Area [W/m2] !Monthly [Value,Min,Day,Hour,Minute,Max,Day,Hour,Minute]
787,9,656C49,Surface Outside Face Incident Solar Radiation Rate per Area [W/m2] !Monthly [Value,Min,Day,Hour,Minute,Max,Day,Hour,Minute]
788,9,1BFB89,Surface Outside Face Incident Solar Radiation Rate per Area [W/m2] !Monthly [Value,Min,Day,Hour,Minute,Max,Day,Hour,Minute]
789,9,9DCC37,Surface Outside Face Incident Solar Radiation Rate per Area [W/m2] !Monthly [Value,Min,Day,Hour,Minute,Max,Day,Hour,Minute]
790,9,70C911,Surface Outside Face Incident Solar Radiation Rate per Area [W/m2] !Monthly [Value,Min,Day,Hour,Minute,Max,Day,Hour,Minute]
791,9,F1C0E5,Surface Outside Face Incident Solar Radiation Rate per Area [W/m2] !Monthly [Value,Min,Day,Hour,Minute,Max,Day,Hour,Minute]
792,9,C55811,Surface Outside Face Incident Solar Radiation Rate per Area [W/m2] !Monthly [Value,Min,Day,Hour,Minute,Max,Day,Hour,Minute]
793,9,27260D,Surface Outside Face Incident Solar Radiation Rate per Area [W/m2] !Monthly [Value,Min,Day,Hour,Minute,Max,Day,Hour,Minute]
794,9,368489,Surface Outside Face Incident Solar Radiation Rate per Area [W/m2] !Monthly [Value,Min,Day,Hour,Minute,Max,Day,Hour,Minute]
795,9,2C24D6,Surface Outside Face Incident Solar Radiation Rate per Area [W/m2] !Monthly [Value,Min,Day,Hour,Minute,Max,Day,Hour,Minute]
796,9,7B4B22,Surface Outside Face Incident Solar Radiation Rate per Area [W/m2] !Monthly [Value,Min,Day,Hour,Minute,Max,Day,Hour,Minute]
797,9,4CB7BB,Surface Outside Face Incident Solar Radiation Rate per Area [W/m2] !Monthly [Value,Min,Day,Hour,Minute,Max,Day,Hour,Minute]
798,9,4182D5,Surface Outside Face Incident Solar Radiation Rate per Area [W/m2] !Monthly [Value,Min,Day,Hour,Minute,Max,Day,Hour,Minute]
799,9,CA5CD4,Surface Outside Face Incident Solar Radiation Rate per Area [W/m2] !Monthly [Value,Min,Day,Hour,Minute,Max,Day,Hour,Minute]
800,9,69B3C6,Surface Outside Face Incident Solar Radiation Rate per Area [W/m2] !Monthly [Value,Min,Day,Hour,Minute,Max,Day,Hour,Minute]
801,9,981235,Surface Outside Face Incident Solar Radiation Rate per Area [W/m2] !Monthly [Value,Min,Day,Hour,Minute,Max,Day,Hour,Minute]
802,9,2B77D4,Surface Outside Face Incident Solar Radiation Rate per Area [W/m2] !Monthly [Value,Min,Day,Hour,Minute,Max,Day,Hour,Minute]
803,9,F0F00C,Surface Outside Face Incident Solar Radiation Rate per Area [W/m2] !Monthly [Value,Min,Day,Hour,Minute,Max,Day,Hour,Minute]
804,9,873843,Surface Outside Face Incident Solar Radiation Rate per Area [W/m2] !Monthly [Value,Min,Day,Hour,Minute,Max,Day,Hour,Minute]
805,9,B7BDE5,Surface Outside Face Incident Solar Radiation Rate per Area [W/m2] !Monthly [Value,Min,Day,Hour,Minute,Max,Day,Hour,Minute]
806,9,5D703E,Surface Outside Face Incident Solar Radiation Rate per Area [W/m2] !Monthly [Value,Min,Day,Hour,Minute,Max,Day,Hour,Minute]
807,9,C85C4C,Surface Outside Face Incident Solar Radiation Rate per Area [W/m2] !Monthly [Value,Min,Day,Hour,Minute,Max,Day,Hour,Minute]
808,9,1A2D8D,Surface Outside Face Incident Solar Radiation Rate per Area [W/m2] !Monthly [Value,Min,Day,Hour,Minute,Max,Day,Hour,Minute]
809,9,3A67D1,Surface Outside Face Incident Solar Radiation Rate per Area [W/m2] !Monthly [Value,Min,Day,Hour,Minute,Max,Day,Hour,Minute]
810,9,33CF50,Surface Outside Face Incident Solar Radiation Rate per Area [W/m2] !Monthly [Value,Min,Day,Hour,Minute,Max,Day,Hour,Minute]
811,9,228D6F,Surface Outside Face Incident Solar Radiation Rate per Area [W/m2] !Monthly [Value,Min,Day,Hour,Minute,Max,Day,Hour,Minute]
812,9,1B2AB0,Surface Outside Face Incident Solar Radiation Rate per Area [W/m2] !Monthly [Value,Min,Day,Hour,Minute,Max,Day,Hour,Minute]
813,9,A13DB3,Surface Outside Face Incident Solar Radiation Rate per Area [W/m2] !Monthly [Value,Min,Day,Hour,Minute,Max,Day,Hour,Minute]
814,9,265AE9,Surface Outside Face Incident Solar Radiation Rate per Area [W/m2] !Monthly [Value,Min,Day,Hour,Minute,Max,Day,Hour,Minute]
815,9,C49DA1,Surface Outside Face Incident Solar Radiation Rate per Area [W/m2] !Monthly [Value,Min,Day,Hour,Minute,Max,Day,Hour,Minute]
816,9,9CA57B,Surface Outside Face Incident Solar Radiation Rate per Area [W/m2] !Monthly [Value,Min,Day,Hour,Minute,Max,Day,Hour,Minute]
817,9,D47298,Surface Outside Face Incident Solar Radiation Rate per Area [W/m2] !Monthly [Value,Min,Day,Hour,Minute,Max,Day,Hour,Minute]
818,9,3FB956,Surface Outside Face Incident Solar Radiation Rate per Area [W/m2] !Monthly [Value,Min,Day,Hour,Minute,Max,Day,Hour,Minute]
819,9,96BCDA,Surface Outside Face Incident Solar Radiation Rate per Area [W/m2] !Monthly [Value,Min,Day,Hour,Minute,Max,Day,Hour,Minute]
820,9,CA7BDE,Surface Outside Face Incident Solar Radiation Rate per Area [W/m2] !Monthly [Value,Min,Day,Hour,Minute,Max,Day,Hour,Minute]
821,9,6C8EDB,Surface Outside Face Incident Solar Radiation Rate per Area [W/m2] !Monthly [Value,Min,Day,Hour,Minute,Max,Day,Hour,Minute]
822,9,8DAF8D,Surface Outside Face Incident Solar Radiation Rate per Area [W/m2] !Monthly [Value,Min,Day,Hour,Minute,Max,Day,Hour,Minute]
823,9,E7A049,Surface Outside Face Incident Solar Radiation Rate per Area [W/m2] !Monthly [Value,Min,Day,Hour,Minute,Max,Day,Hour,Minute]
824,9,C2DD8D,Surface Outside Face Incident Solar Radiation Rate per Area [W/m2] !Monthly [Value,Min,Day,Hour,Minute,Max,Day,Hour,Minute]
825,9,3AE67F,Surface Outside Face Incident Solar Radiation Rate per Area [W/m2] !Monthly [Value,Min,Day,Hour,Minute,Max,Day,Hour,Minute]
826,9,E9A1AB,Surface Outside Face Incident Solar Radiation Rate per Area [W/m2] !Monthly [Value,Min,Day,Hour,Minute,Max,Day,Hour,Minute]
827,9,23DAAD,Surface Outside Face Incident Solar Radiation Rate per Area [W/m2] !Monthly [Value,Min,Day,Hour,Minute,Max,Day,Hour,Minute]
828,9,9B02E0,Surface Outside Face Incident Solar Radiation Rate per Area [W/m2] !Monthly [Value,Min,Day,Hour,Minute,Max,Day,Hour,Minute]
829,9,D19393,Surface Outside Face Incident Solar Radiation Rate per Area [W/m2] !Monthly [Value,Min,Day,Hour,Minute,Max,Day,Hour,Minute]
830,9,94BA8A,Surface Outside Face Incident Solar Radiation Rate per Area [W/m2] !Monthly [Value,Min,Day,Hour,Minute,Max,Day,Hour,Minute]
831,9,895EC3,Surface Outside Face Incident Solar Radiation Rate per Area [W/m2] !Monthly [Value,Min,Day,Hour,Minute,Max,Day,Hour,Minute]
832,9,545054,Surface Outside Face Incident Solar Radiation Rate per Area [W/m2] !Monthly [Value,Min,Day,Hour,Minute,Max,Day,Hour,Minute]
833,9,A54BE7,Surface Outside Face Incident Solar Radiation Rate per Area [W/m2] !Monthly [Value,Min,Day,Hour,Minute,Max,Day,Hour,Minute]
834,9,8BFBF7,Surface Outside Face Incident Solar Radiation Rate per Area [W/m2] !Monthly [Value,Min,Day,Hour,Minute,Max,Day,Hour,Minute]
835,9,A50407,Surface Outside Face Incident Solar Radiation Rate per Area [W/m2] !Monthly [Value,Min,Day,Hour,Minute,Max,Day,Hour,Minute]
836,9,4D66A8,Surface Outside Face Incident Solar Radiation Rate per Area [W/m2] !Monthly [Value,Min,Day,Hour,Minute,Max,Day,Hour,Minute]
837,9,AA51D4,Surface Outside Face Incident Solar Radiation Rate per Area [W/m2] !Monthly [Value,Min,Day,Hour,Minute,Max,Day,Hour,Minute]
838,9,7BA5DE,Surface Outside Face Incident Solar Radiation Rate per Area [W/m2] !Monthly [Value,Min,Day,Hour,Minute,Max,Day,Hour,Minute]
839,9,2986A4,Surface Outside Face Incident Solar Radiation Rate per Area [W/m2] !Monthly [Value,Min,Day,Hour,Minute,Max,Day,Hour,Minute]
840,9,864E4C,Surface Outside Face Incident Solar Radiation Rate per Area [W/m2] !Monthly [Value,Min,Day,Hour,Minute,Max,Day,Hour,Minute]
841,9,F90CBB,Surface Outside Face Incident Solar Radiation Rate per Area [W/m2] !Monthly [Value,Min,Day,Hour,Minute,Max,Day,Hour,Minute]
842,9,C1301C,Surface Outside Face Incident Solar Radiation Rate per Area [W/m2] !Monthly [Value,Min,Day,Hour,Minute,Max,Day,Hour,Minute]
843,9,E26F8E,Surface Outside Face Incident Solar Radiation Rate per Area [W/m2] !Monthly [Value,Min,Day,Hour,Minute,Max,Day,Hour,Minute]
844,9,7D637F,Surface Outside Face Incident Solar Radiation Rate per Area [W/m2] !Monthly [Value,Min,Day,Hour,Minute,Max,Day,Hour,Minute]
845,9,8CC1C8,Surface Outside Face Incident Solar Radiation Rate per Area [W/m2] !Monthly [Value,Min,Day,Hour,Minute,Max,Day,Hour,Minute]
846,9,F7ED9D,Surface Outside Face Incident Solar Radiation Rate per Area [W/m2] !Monthly [Value,Min,Day,Hour,Minute,Max,Day,Hour,Minute]
847,9,834AD4,Surface Outside Face Incident Solar Radiation Rate per Area [W/m2] !Monthly [Value,Min,Day,Hour,Minute,Max,Day,Hour,Minute]
848,9,653A8A,Surface Outside Face Incident Solar Radiation Rate per Area [W/m2] !Monthly [Value,Min,Day,Hour,Minute,Max,Day,Hour,Minute]
849,9,B8067C,Surface Outside Face Incident Solar Radiation Rate per Area [W/m2] !Monthly [Value,Min,Day,Hour,Minute,Max,Day,Hour,Minute]
850,9,F8E398,Surface Outside Face Incident Solar Radiation Rate per Area [W/m2] !Monthly [Value,Min,Day,Hour,Minute,Max,Day,Hour,Minute]
851,9,814B1B,Surface Outside Face Incident Solar Radiation Rate per Area [W/m2] !Monthly [Value,Min,Day,Hour,Minute,Max,Day,Hour,Minute]
852,9,1FE133,Surface Outside Face Incident Solar Radiation Rate per Area [W/m2] !Monthly [Value,Min,Day,Hour,Minute,Max,Day,Hour,Minute]
853,9,B1BC35,Surface Outside Face Incident Solar Radiation Rate per Area [W/m2] !Monthly [Value,Min,Day,Hour,Minute,Max,Day,Hour,Minute]
854,9,A79403,Surface Outside Face Incident Solar Radiation Rate per Area [W/m2] !Monthly [Value,Min,Day,Hour,Minute,Max,Day,Hour,Minute]
855,9,488576,Surface Outside Face Incident Solar Radiation Rate per Area [W/m2] !Monthly [Value,Min,Day,Hour,Minute,Max,Day,Hour,Minute]
856,9,E7083B,Surface Outside Face Incident Solar Radiation Rate per Area [W/m2] !Monthly [Value,Min,Day,Hour,Minute,Max,Day,Hour,Minute]
857,9,55BC62,Surface Outside Face Incident Solar Radiation Rate per Area [W/m2] !Monthly [Value,Min,Day,Hour,Minute,Max,Day,Hour,Minute]
858,9,B55A20,Surface Outside Face Incident Solar Radiation Rate per Area [W/m2] !Monthly [Value,Min,Day,Hour,Minute,Max,Day,Hour,Minute]
859,9,3A89E2,Surface Outside Face Incident Solar Radiation Rate per Area [W/m2] !Monthly [Value,Min,Day,Hour,Minute,Max,Day,Hour,Minute]
860,9,953913,Surface Outside Face Incident Solar Radiation Rate per Area [W/m2] !Monthly [Value,Min,Day,Hour,Minute,Max,Day,Hour,Minute]
861,9,6AD0AC,Surface Outside Face Incident Solar Radiation Rate per Area [W/m2] !Monthly [Value,Min,Day,Hour,Minute,Max,Day,Hour,Minute]
862,9,699E7C,Surface Outside Face Incident Solar Radiation Rate per Area [W/m2] !Monthly [Value,Min,Day,Hour,Minute,Max,Day,Hour,Minute]
863,9,7BCC00,Surface Outside Face Incident Solar Radiation Rate per Area [W/m2] !Monthly [Value,Min,Day,Hour,Minute,Max,Day,Hour,Minute]
864,9,C5516B,Surface Outside Face Incident Solar Radiation Rate per Area [W/m2] !Monthly [Value,Min,Day,Hour,Minute,Max,Day,Hour,Minute]
865,9,E03F80,Surface Outside Face Incident Solar Radiation Rate per Area [W/m2] !Monthly [Value,Min,Day,Hour,Minute,Max,Day,Hour,Minute]
866,9,65FB66,Surface Outside Face Incident Solar Radiation Rate per Area [W/m2] !Monthly [Value,Min,Day,Hour,Minute,Max,Day,Hour,Minute]
867,9,3134EF,Surface Outside Face Incident Solar Radiation Rate per Area [W/m2] !Monthly [Value,Min,Day,Hour,Minute,Max,Day,Hour,Minute]
868,9,A7E34B,Surface Outside Face Incident Solar Radiation Rate per Area [W/m2] !Monthly [Value,Min,Day,Hour,Minute,Max,Day,Hour,Minute]
869,9,75DE40,Surface Outside Face Incident Solar Radiation Rate per Area [W/m2] !Monthly [Value,Min,Day,Hour,Minute,Max,Day,Hour,Minute]
870,9,4EF493,Surface Outside Face Incident Solar Radiation Rate per Area [W/m2] !Monthly [Value,Min,Day,Hour,Minute,Max,Day,Hour,Minute]
871,9,FF1857,Surface Outside Face Incident Solar Radiation Rate per Area [W/m2] !Monthly [Value,Min,Day,Hour,Minute,Max,Day,Hour,Minute]
872,9,87FB35,Surface Outside Face Incident Solar Radiation Rate per Area [W/m2] !Monthly [Value,Min,Day,Hour,Minute,Max,Day,Hour,Minute]
873,9,8A7124,Surface Outside Face Incident Solar Radiation Rate per Area [W/m2] !Monthly [Value,Min,Day,Hour,Minute,Max,Day,Hour,Minute]
874,9,70320D,Surface Outside Face Incident Solar Radiation Rate per Area [W/m2] !Monthly [Value,Min,Day,Hour,Minute,Max,Day,Hour,Minute]
875,9,E1B7E4,Surface Outside Face Incident Solar Radiation Rate per Area [W/m2] !Monthly [Value,Min,Day,Hour,Minute,Max,Day,Hour,Minute]
876,9,F7BF36,Surface Outside Face Incident Solar Radiation Rate per Area [W/m2] !Monthly [Value,Min,Day,Hour,Minute,Max,Day,Hour,Minute]
877,9,460E14,Surface Outside Face Incident Solar Radiation Rate per Area [W/m2] !Monthly [Value,Min,Day,Hour,Minute,Max,Day,Hour,Minute]
878,9,8C1A09,Surface Outside Face Incident Solar Radiation Rate per Area [W/m2] !Monthly [Value,Min,Day,Hour,Minute,Max,Day,Hour,Minute]
879,9,62647D,Surface Outside Face Incident Solar Radiation Rate per Area [W/m2] !Monthly [Value,Min,Day,Hour,Minute,Max,Day,Hour,Minute]
880,9,5877D0,Surface Outside Face Incident Solar Radiation Rate per Area [W/m2] !Monthly [Value,Min,Day,Hour,Minute,Max,Day,Hour,Minute]
881,9,E1E523,Surface Outside Face Incident Solar Radiation Rate per Area [W/m2] !Monthly [Value,Min,Day,Hour,Minute,Max,Day,Hour,Minute]
882,9,DEE2B1,Surface Outside Face Incident Solar Radiation Rate per Area [W/m2] !Monthly [Value,Min,Day,Hour,Minute,Max,Day,Hour,Minute]
883,9,AAA4E4,Surface Outside Face Incident Solar Radiation Rate per Area [W/m2] !Monthly [Value,Min,Day,Hour,Minute,Max,Day,Hour,Minute]
884,9,95BEA6,Surface Outside Face Incident Solar Radiation Rate per Area [W/m2] !Monthly [Value,Min,Day,Hour,Minute,Max,Day,Hour,Minute]
885,9,BB81B1,Surface Outside Face Incident Solar Radiation Rate per Area [W/m2] !Monthly [Value,Min,Day,Hour,Minute,Max,Day,Hour,Minute]
886,9,D1FFE3,Surface Outside Face Incident Solar Radiation Rate per Area [W/m2] !Monthly [Value,Min,Day,Hour,Minute,Max,Day,Hour,Minute]
887,9,EED077,Surface Outside Face Incident Solar Radiation Rate per Area [W/m2] !Monthly [Value,Min,Day,Hour,Minute,Max,Day,Hour,Minute]
888,9,653211,Surface Outside Face Incident Solar Radiation Rate per Area [W/m2] !Monthly [Value,Min,Day,Hour,Minute,Max,Day,Hour,Minute]
889,9,D4DC85,Surface Outside Face Incident Solar Radiation Rate per Area [W/m2] !Monthly [Value,Min,Day,Hour,Minute,Max,Day,Hour,Minute]
890,9,19CB71,Surface Outside Face Incident Solar Radiation Rate per Area [W/m2] !Monthly [Value,Min,Day,Hour,Minute,Max,Day,Hour,Minute]
891,9,18F863,Surface Outside Face Incident Solar Radiation Rate per Area [W/m2] !Monthly [Value,Min,Day,Hour,Minute,Max,Day,Hour,Minute]
892,9,F43BCB,Surface Outside Face Incident Solar Radiation Rate per Area [W/m2] !Monthly [Value,Min,Day,Hour,Minute,Max,Day,Hour,Minute]
893,9,A5D7A2,Surface Outside Face Incident Solar Radiation Rate per Area [W/m2] !Monthly [Value,Min,Day,Hour,Minute,Max,Day,Hour,Minute]
894,9,6A1CD1,Surface Outside Face Incident Solar Radiation Rate per Area [W/m2] !Monthly [Value,Min,Day,Hour,Minute,Max,Day,Hour,Minute]
895,9,36AA50,Surface Outside Face Incident Solar Radiation Rate per Area [W/m2] !Monthly [Value,Min,Day,Hour,Minute,Max,Day,Hour,Minute]
896,9,E42E53,Surface Outside Face Incident Solar Radiation Rate per Area [W/m2] !Monthly [Value,Min,Day,Hour,Minute,Max,Day,Hour,Minute]
897,9,755B68,Surface Outside Face Incident Solar Radiation Rate per Area [W/m2] !Monthly [Value,Min,Day,Hour,Minute,Max,Day,Hour,Minute]
898,9,E8EDFB,Surface Outside Face Incident Solar Radiation Rate per Area [W/m2] !Monthly [Value,Min,Day,Hour,Minute,Max,Day,Hour,Minute]
899,9,64FC7F,Surface Outside Face Incident Solar Radiation Rate per Area [W/m2] !Monthly [Value,Min,Day,Hour,Minute,Max,Day,Hour,Minute]
900,9,C2FD0D,Surface Outside Face Incident Solar Radiation Rate per Area [W/m2] !Monthly [Value,Min,Day,Hour,Minute,Max,Day,Hour,Minute]
901,9,5874F1,Surface Outside Face Incident Solar Radiation Rate per Area [W/m2] !Monthly [Value,Min,Day,Hour,Minute,Max,Day,Hour,Minute]
902,9,CFFA86,Surface Outside Face Incident Solar Radiation Rate per Area [W/m2] !Monthly [Value,Min,Day,Hour,Minute,Max,Day,Hour,Minute]
903,9,6C2720,Surface Outside Face Incident Solar Radiation Rate per Area [W/m2] !Monthly [Value,Min,Day,Hour,Minute,Max,Day,Hour,Minute]
904,9,B99D0E,Surface Outside Face Incident Solar Radiation Rate per Area [W/m2] !Monthly [Value,Min,Day,Hour,Minute,Max,Day,Hour,Minute]
905,9,E0F521,Surface Outside Face Incident Solar Radiation Rate per Area [W/m2] !Monthly [Value,Min,Day,Hour,Minute,Max,Day,Hour,Minute]
906,9,A2960A,Surface Outside Face Incident Solar Radiation Rate per Area [W/m2] !Monthly [Value,Min,Day,Hour,Minute,Max,Day,Hour,Minute]
907,9,EEA90E,Surface Outside Face Incident Solar Radiation Rate per Area [W/m2] !Monthly [Value,Min,Day,Hour,Minute,Max,Day,Hour,Minute]
908,9,59C019,Surface Outside Face Incident Solar Radiation Rate per Area [W/m2] !Monthly [Value,Min,Day,Hour,Minute,Max,Day,Hour,Minute]
909,9,CDF435,Surface Outside Face Incident Solar Radiation Rate per Area [W/m2] !Monthly [Value,Min,Day,Hour,Minute,Max,Day,Hour,Minute]
910,9,52AE84,Surface Outside Face Incident Solar Radiation Rate per Area [W/m2] !Monthly [Value,Min,Day,Hour,Minute,Max,Day,Hour,Minute]
911,9,16CA10,Surface Outside Face Incident Solar Radiation Rate per Area [W/m2] !Monthly [Value,Min,Day,Hour,Minute,Max,Day,Hour,Minute]
912,9,2D05E1,Surface Outside Face Incident Solar Radiation Rate per Area [W/m2] !Monthly [Value,Min,Day,Hour,Minute,Max,Day,Hour,Minute]
913,9,38392B,Surface Outside Face Incident Solar Radiation Rate per Area [W/m2] !Monthly [Value,Min,Day,Hour,Minute,Max,Day,Hour,Minute]
914,9,A6C9BD,Surface Outside Face Incident Solar Radiation Rate per Area [W/m2] !Monthly [Value,Min,Day,Hour,Minute,Max,Day,Hour,Minute]
915,9,B4D7D4,Surface Outside Face Incident Solar Radiation Rate per Area [W/m2] !Monthly [Value,Min,Day,Hour,Minute,Max,Day,Hour,Minute]
916,9,A53796,Surface Outside Face Incident Solar Radiation Rate per Area [W/m2] !Monthly [Value,Min,Day,Hour,Minute,Max,Day,Hour,Minute]
917,9,AC0D6E,Surface Outside Face Incident Solar Radiation Rate per Area [W/m2] !Monthly [Value,Min,Day,Hour,Minute,Max,Day,Hour,Minute]
918,9,8580C7,Surface Outside Face Incident Solar Radiation Rate per Area [W/m2] !Monthly [Value,Min,Day,Hour,Minute,Max,Day,Hour,Minute]
919,9,FAE232,Surface Outside Face Incident Solar Radiation Rate per Area [W/m2] !Monthly [Value,Min,Day,Hour,Minute,Max,Day,Hour,Minute]
920,9,1FB167,Surface Outside Face Incident Solar Radiation Rate per Area [W/m2] !Monthly [Value,Min,Day,Hour,Minute,Max,Day,Hour,Minute]
921,9,2E5565,Surface Outside Face Incident Solar Radiation Rate per Area [W/m2] !Monthly [Value,Min,Day,Hour,Minute,Max,Day,Hour,Minute]
922,9,D92264,Surface Outside Face Incident Solar Radiation Rate per Area [W/m2] !Monthly [Value,Min,Day,Hour,Minute,Max,Day,Hour,Minute]
923,9,8EB296,Surface Outside Face Incident Solar Radiation Rate per Area [W/m2] !Monthly [Value,Min,Day,Hour,Minute,Max,Day,Hour,Minute]
924,9,210899,Surface Outside Face Incident Solar Radiation Rate per Area [W/m2] !Monthly [Value,Min,Day,Hour,Minute,Max,Day,Hour,Minute]
925,9,836FB1,Surface Outside Face Incident Solar Radiation Rate per Area [W/m2] !Monthly [Value,Min,Day,Hour,Minute,Max,Day,Hour,Minute]
926,9,CDCD3D,Surface Outside Face Incident Solar Radiation Rate per Area [W/m2] !Monthly [Value,Min,Day,Hour,Minute,Max,Day,Hour,Minute]
927,9,6FC848,Surface Outside Face Incident Solar Radiation Rate per Area [W/m2] !Monthly [Value,Min,Day,Hour,Minute,Max,Day,Hour,Minute]
928,9,EB36B0,Surface Outside Face Incident Solar Radiation Rate per Area [W/m2] !Monthly [Value,Min,Day,Hour,Minute,Max,Day,Hour,Minute]
929,9,4B0C75,Surface Outside Face Incident Solar Radiation Rate per Area [W/m2] !Monthly [Value,Min,Day,Hour,Minute,Max,Day,Hour,Minute]
930,9,EC5B03,Surface Outside Face Incident Solar Radiation Rate per Area [W/m2] !Monthly [Value,Min,Day,Hour,Minute,Max,Day,Hour,Minute]
931,9,C95431,Surface Outside Face Incident Solar Radiation Rate per Area [W/m2] !Monthly [Value,Min,Day,Hour,Minute,Max,Day,Hour,Minute]
932,9,2D5365,Surface Outside Face Incident Solar Radiation Rate per Area [W/m2] !Monthly [Value,Min,Day,Hour,Minute,Max,Day,Hour,Minute]
933,9,3BE8A8,Surface Outside Face Incident Solar Radiation Rate per Area [W/m2] !Monthly [Value,Min,Day,Hour,Minute,Max,Day,Hour,Minute]
934,9,4C3012,Surface Outside Face Incident Solar Radiation Rate per Area [W/m2] !Monthly [Value,Min,Day,Hour,Minute,Max,Day,Hour,Minute]
935,9,B7B826,Surface Outside Face Incident Solar Radiation Rate per Area [W/m2] !Monthly [Value,Min,Day,Hour,Minute,Max,Day,Hour,Minute]
1244,7,Cooling:EnergyTransfer [J] !Daily [Value,Min,Hour,Minute,Max,Hour,Minute]
46,7,InteriorLights:Electricity [J] !Daily [Value,Min,Hour,Minute,Max,Hour,Minute]
458,7,InteriorEquipment:Electricity [J] !Daily [Value,Min,Hour,Minute,Max,Hour,Minute]
End of Data Dictionary
1,JUNE2015,   1.37, 103.98,   8.00,  16.00
3,1, 6, 1, 0,Monday
46,380160000.0,0.0, 1, 2,2304000.0, 7, 2
458,3028392000.0,1526400.0, 1, 2,48312000.0, 8, 2
1244,3528960724.400317,0.0, 7, 2,95285726.45374498,24,32
3,2, 6, 2, 0,Tuesday
46,380160000.0,0.0, 1, 2,2304000.0, 7, 2
458,3028392000.0,1526400.0, 1, 2,48312000.0, 8, 2
1244,3489307571.488921,0.0, 7, 2,92729672.74836654,24,32
3,3, 6, 3, 0,Wednesday
46,380160000.0,0.0, 1, 2,2304000.0, 7, 2
458,3028392000.0,1526400.0, 1, 2,48312000.0, 8, 2
1244,3658729259.042949,0.0, 7, 2,95943527.3085275,24,32
3,4, 6, 4, 0,Thursday
46,380160000.0,0.0, 1, 2,2304000.0, 7, 2
458,3028392000.0,1526400.0, 1, 2,48312000.0, 8, 2
1244,3724851511.0230729,0.0, 7, 2,76722999.32392733,24,32
3,5, 6, 5, 0,Friday
46,380160000.0,0.0, 1, 2,2304000.0, 7, 2
458,3028392000.0,1526400.0, 1, 2,48312000.0, 8, 2
1244,3514510857.0708296,0.0, 7, 2,96507772.03856968,24,32
3,6, 6, 6, 0,Saturday
46,322560000.0,0.0, 1, 2,2304000.0, 7,52
458,3617856000.0,1526400.0, 1, 2,37886400.0, 7,52
1244,3348191075.8810675,0.0, 7, 2,94391575.17207685,24,32
3,7, 6, 7, 0,Sunday
46,322560000.0,0.0, 1, 2,2304000.0, 7,52
458,3617856000.0,1526400.0, 1, 2,37886400.0, 7,52
1244,2533616703.692079,0.0, 7, 2,84773224.4371596,24,32
3,8, 6, 8, 0,Monday
46,380160000.0,0.0, 1, 2,2304000.0, 7, 2
458,3028392000.0,1526400.0, 1, 2,48312000.0, 8, 2
1244,2235669751.656822,0.0, 7, 2,93956505.61787392,24,32
3,9, 6, 9, 0,Tuesday
46,380160000.0,0.0, 1, 2,2304000.0, 7, 2
458,3028392000.0,1526400.0, 1, 2,48312000.0, 8, 2