Program Version,EnergyPlus, Version 9.3.0-baff08990c, YMD=2025.11.06 15:49
1,5,Environment Title[],Latitude[deg],Longitude[deg],Time Zone[],Elevation[m]
2,8,Day of Simulation[],Month[],Day of Month[],DST Indicator[1=yes 0=no],Hour[],StartMinute[],EndMinute[],DayType
3,5,Cumulative Day of Simulation[],Month[],Day of Month[],DST Indicator[1=yes 0=no],DayType  ! When Daily Report Variables Requested
4,2,Cumulative Days of Simulation[],Month[]  ! When Monthly Report Variables Requested
5,1,Cumulative Days of Simulation[] ! When Run Period Report Variables Requested
6,1,Calendar Year of Simulation[] ! When Annual Report Variables Requested
735,9,OVERHANG_9B19D6,Surface Outside Face Incident Solar Radiation Rate per Area [W/m2] !Monthly [Value,Min,Day,Hour,Minute,Max,Day,Hour,Minute]
736,9,Mir-OVERHANG_9B19D6,Surface Outside Face Incident Solar Radiation Rate per Area [W/m2] !Monthly [Value,Min,Day,Hour,Minute,Max,Day,Hour,Minute]
737,9,OVERHANG_4BBE32,Surface Outside Face Incident Solar Radiation Rate per Area [W/m2] !Monthly [Value,Min,Day,Hour,Minute,Max,Day,Hour,Minute]
738,9,Mir-OVERHANG_4BBE32,Surface Outside Face Incident Solar Radiation Rate per Area [W/m2] !Monthly [Value,Min,Day,Hour,Minute,Max,Day,Hour,Minute]
739,9,OVERHANG_3CC912,Surface Outside Face Incident Solar Radiation Rate per Area [W/m2] !Monthly [Value,Min,Day,Hour,Minute,Max,Day,Hour,Minute]
740,9,Mir-OVERHANG_3CC912,Surface Outside Face Incident Solar Radiation Rate per Area [W/m2] !Monthly [Value,Min,Day,Hour,Minute,Max,Day,Hour,Minute]
741,9,OVERHANG_5C02CA,Surface Outside Face Incident Solar Radiation Rate per Area [W/m2] !Monthly [Value,Min,Day,Hour,Minute,Max,Day,Hour,Minute]
742,9,Mir-OVERHANG_5C02CA,Surface Outside Face Incident Solar Radiation Rate per Area [W/m2] !Monthly [Value,Min,Day,Hour,Minute,Max,Day,Hour,Minute]
743,9,OVERHANG_7807BB,Surface Outside Face Incident Solar Radiation Rate per Area [W/m2] !Monthly [Value,Min,Day,Hour,Minute,Max,Day,Hour,Minute]
744,9,Mir-OVERHANG_7807BB,Surface Outside Face Incident Solar Radiation Rate per Area [W/m2] !Monthly [Value,Min,Day,Hour,Minute,Max,Day,Hour,Minute]
745,9,OVERHANG_D0B56C,Surface Outside Face Incident Solar Radiation Rate per Area [W/m2] !Monthly [Value,Min,Day,Hour,Minute,Max,Day,Hour,Minute]
746,9,Mir-OVERHANG_D0B56C,Surface Outside Face Incident Solar Radiation Rate per Area [W/m2] !Monthly [Value,Min,Day,Hour,Minute,Max,Day,Hour,Minute]
747,9,OVERHANG_F0171B,Surface Outside Face Incident Solar Radiation Rate per Area [W/m2] !Monthly [Value,Min,Day,Hour,Minute,Max,Day,Hour,Minute]
748,9,Mir-OVERHANG_F0171B,Surface Outside Face Incident Solar Radiation Rate per Area [W/m2] !Monthly [Value,Min,Day,Hour,Minute,Max,Day,Hour,Minute]
749,9,OVERHANG_F6C20E,Surface Outside Face Incident Solar Radiation Rate per Area [W/m2] !Monthly [Value,Min,Day,Hour,Minute,Max,Day,Hour,Minute]
750,9,Mir-OVERHANG_F6C20E,Surface Outside Face Incident Solar Radiation Rate per Area [W/m2] !Monthly [Value,Min,Day,Hour,Minute,Max,Day,Hour,Minute]
751,9,OVERHANG_C6D9BB,Surface Outside Face Incident Solar Radiation Rate per Area [W/m2] !Monthly [Value,Min,Day,Hour,Minute,Max,Day,Hour,Minute]
752,9,Mir-OVERHANG_C6D9BB,Surface Outside Face Incident Solar Radiation Rate per Area [W/m2] !Monthly [Value,Min,Day,Hour,Minute,Max,Day,Hour,Minute]
753,9,OVERHANG_9BDED2,Surface Outside Face Incident Solar Radiation Rate per Area [W/m2] !Monthly [Value,Min,Day,Hour,Minute,Max,Day,Hour,Minute]
754,9,Mir-OVERHANG_9BDED2,Surface Outside Face Incident Solar Radiation Rate per Area [W/m2] !Monthly [Value,Min,Day,Hour,Minute,Max,Day,Hour,Minute]
755,9,OVERHANG_A8D3AE,Surface Outside Face Incident Solar Radiation Rate per Area [W/m2] !Monthly [Value,Min,Day,Hour,Minute,Max,Day,Hour,Minute]
756,9,Mir-OVERHANG_A8D3AE,Surface Outside Face Incident Solar Radiation Rate per Area [W/m2] !Monthly [Value,Min,Day,Hour,Minute,Max,Day,Hour,Minute]
757,9,OVERHANG_DC887A,Surface Outside Face Incident Solar Radiation Rate per Area [W/m2] !Monthly [Value,Min,Day,Hour,Minute,Max,Day,Hour,Minute]
758,9,Mir-OVERHANG_DC887A,Surface Outside Face Incident Solar Radiation Rate per Area [W/m2] !Monthly [Value,Min,Day,Hour,Minute,Max,Day,Hour,Minute]
759,9,OVERHANG_7B4B22,Surface Outside Face Incident Solar Radiation Rate per Area [W/m2] !Monthly [Value,Min,Day,Hour,Minute,Max,Day,Hour,Minute]
760,9,Mir-OVERHANG_7B4B22,Surface Outside Face Incident Solar Radiation Rate per Area [W/m2] !Monthly [Value,Min,Day,Hour,Minute,Max,Day,Hour,Minute]
761,9,OVERHANG_C55811,Surface Outside Face Incident Solar Radiation Rate per Area [W/m2] !Monthly [Value,Min,Day,Hour,Minute,Max,Day,Hour,Minute]
762,9,Mir-OVERHANG_C55811,Surface Outside Face Incident Solar Radiation Rate per Area [W/m2] !Monthly [Value,Min,Day,Hour,Minute,Max,Day,Hour,Minute]
763,9,OVERHANG_8ECBCC,Surface Outside Face Incident Solar Radiation Rate per Area [W/m2] !Monthly [Value,Min,Day,Hour,Minute,Max,Day,Hour,Minute]
764,9,Mir-OVERHANG_8ECBCC,Surface Outside Face Incident Solar Radiation Rate per Area [W/m2] !Monthly [Value,Min,Day,Hour,Minute,Max,Day,Hour,Minute]
765,9,OVERHANG_D919F4,Surface Outside Face Incident Solar Radiation Rate per Area [W/m2] !Monthly [Value,Min,Day,Hour,Minute,Max,Day,Hour,Minute]
766,9,Mir-OVERHANG_D919F4,Surface Outside Face Incident Solar Radiation Rate per Area [W/m2] !Monthly [Value,Min,Day,Hour,Minute,Max,Day,Hour,Minute]
767,9,OVERHANG_3C0ECF,Surface Outside Face Incident Solar Radiation Rate per Area [W/m2] !Monthly [Value,Min,Day,Hour,Minute,Max,Day,Hour,Minute]
768,9,Mir-OVERHANG_3C0ECF,Surface Outside Face Incident Solar Radiation Rate per Area [W/m2] !Monthly [Value,Min,Day,Hour,Minute,Max,Day,Hour,Minute]
769,9,OVERHANG_4182D5,Surface Outside Face Incident Solar Radiation Rate per Area [W/m2] !Monthly [Value,Min,Day,Hour,Minute,Max,Day,Hour,Minute]
770,9,Mir-OVERHANG_4182D5,Surface Outside Face Incident Solar Radiation Rate per Area [W/m2] !Monthly [Value,Min,Day,Hour,Minute,Max,Day,Hour,Minute]
771,9,OVERHANG_C7CB71,Surface Outside Face Incident Solar Radiation Rate per Area [W/m2] !Monthly [Value,Min,Day,Hour,Minute,Max,Day,Hour,Minute]
772,9,Mir-OVERHANG_C7CB71,Surface Outside Face Incident Solar Radiation Rate per Area [W/m2] !Monthly [Value,Min,Day,Hour,Minute,Max,Day,Hour,Minute]
773,9,OVERHANG_656C49,Surface Outside Face Incident Solar Radiation Rate per Area [W/m2] !Monthly [Value,Min,Day,Hour,Minute,Max,Day,Hour,Minute]
774,9,Mir-OVERHANG_656C49,Surface Outside Face Incident Solar Radiation Rate per Area [W/m2] !Monthly [Value,Min,Day,Hour,Minute,Max,Day,Hour,Minute]
775,9,OVERHANG_EF34E7,Surface Outside Face Incident Solar Radiation Rate per Area [W/m2] !Monthly [Value,Min,Day,Hour,Minute,Max,Day,Hour,Minute]
776,9,Mir-OVERHANG_EF34E7,Surface Outside Face Incident Solar Radiation Rate per Area [W/m2] !Monthly [Value,Min,Day,Hour,Minute,Max,Day,Hour,Minute]
777,9,OVERHANG_E012F6,Surface Outside Face Incident Solar Radiation Rate per Area [W/m2] !Monthly [Value,Min,Day,Hour,Minute,Max,Day,Hour,Minute]
778,9,Mir-OVERHANG_E012F6,Surface Outside Face Incident Solar Radiation Rate per Area [W/m2] !Monthly [Value,Min,Day,Hour,Minute,Max,Day,Hour,Minute]
779,9,OVERHANG_421611,Surface Outside Face Incident Solar Radiation Rate per Area [W/m2] !Monthly [Value,Min,Day,Hour,Minute,Max,Day,Hour,Minute]
780,9,Mir-OVERHANG_421611,Surface Outside Face Incident Solar Radiation Rate per Area [W/m2] !Monthly [Value,Min,Day,Hour,Minute,Max,Day,Hour,Minute]
781,9,OVERHANG_27260D,Surface Outside Face Incident Solar Radiation Rate per Area [W/m2] !Monthly [Value,Min,Day,Hour,Minute,Max,Day,Hour,Minute]
782,9,Mir-OVERHANG_27260D,Surface Outside Face Incident Solar Radiation Rate per Area [W/m2] !Monthly [Value,Min,Day,Hour,Minute,Max,Day,Hour,Minute]
783,9,OVERHANG_69B3C6,Surface Outside Face Incident Solar Radiation Rate per Area [W/m2] !Monthly [Value,Min,Day,Hour,Minute,Max,Day,Hour,Minute]
784,9,Mir-OVERHANG_69B3C6,Surface Outside Face Incident Solar Radiation Rate per Area [W/m2] !Monthly [Value,Min,Day,Hour,Minute,Max,Day,Hour,Minute]
785,9,OVERHANG_F0F00C,Surface Outside Face Incident Solar Radiation Rate per Area [W/m2] !Monthly [Value,Min,Day,Hour,Minute,Max,Day,Hour,Minute]
786,9,Mir-OVERHANG_F0F00C,Surface Outside Face Incident Solar Radiation Rate per Area [W/m2] !Monthly [Value,Min,Day,Hour,Minute,Max,Day,Hour,Minute]
787,9,OVERHANG_265AE9,Surface Outside Face Incident Solar Radiation Rate per Area [W/m2] !Monthly [Value,Min,Day,Hour,Minute,Max,Day,Hour,Minute]
788,9,Mir-OVERHANG_265AE9,Surface Outside Face Incident Solar Radiation Rate per Area [W/m2] !Monthly [Value,Min,Day,Hour,Minute,Max,Day,Hour,Minute]
789,9,OVERHANG_1B2AB0,Surface Outside Face Incident Solar Radiation Rate per Area [W/m2] !Monthly [Value,Min,Day,Hour,Minute,Max,Day,Hour,Minute]
790,9,Mir-OVERHANG_1B2AB0,Surface Outside Face Incident Solar Radiation Rate per Area [W/m2] !Monthly [Value,Min,Day,Hour,Minute,Max,Day,Hour,Minute]
791,9,OVERHANG_5D703E,Surface Outside Face Incident Solar Radiation Rate per Area [W/m2] !Monthly [Value,Min,Day,Hour,Minute,Max,Day,Hour,Minute]
792,9,Mir-OVERHANG_5D703E,Surface Outside Face Incident Solar Radiation Rate per Area [W/m2] !Monthly [Value,Min,Day,Hour,Minute,Max,Day,Hour,Minute]
793,9,OVERHANG_C85C4C,Surface Outside Face Incident Solar Radiation Rate per Area [W/m2] !Monthly [Value,Min,Day,Hour,Minute,Max,Day,Hour,Minute]
794,9,Mir-OVERHANG_C85C4C,Surface Outside Face Incident Solar Radiation Rate per Area [W/m2] !Monthly [Value,Min,Day,Hour,Minute,Max,Day,Hour,Minute]
795,9,OVERHANG_8DAF8D,Surface Outside Face Incident Solar Radiation Rate per Area [W/m2] !Monthly [Value,Min,Day,Hour,Minute,Max,Day,Hour,Minute]
796,9,Mir-OVERHANG_8DAF8D,Surface Outside Face Incident Solar Radiation Rate per Area [W/m2] !Monthly [Value,Min,Day,Hour,Minute,Max,Day,Hour,Minute]
797,9,OVERHANG_3FB956,Surface Outside Face Incident Solar Radiation Rate per Area [W/m2] !Monthly [Value,Min,Day,Hour,Minute,Max,Day,Hour,Minute]
798,9,Mir-OVERHANG_3FB956,Surface Outside Face Incident Solar Radiation Rate per Area [W/m2] !Monthly [Value,Min,Day,Hour,Minute,Max,Day,Hour,Minute]
799,9,OVERHANG_96BCDA,Surface Outside Face Incident Solar Radiation Rate per Area [W/m2] !Monthly [Value,Min,Day,Hour,Minute,Max,Day,Hour,Minute]
800,9,Mir-OVERHANG_96BCDA,Surface Outside Face Incident Solar Radiation Rate per Area [W/m2] !Monthly [Value,Min,Day,Hour,Minute,Max,Day,Hour,Minute]
801,9,OVERHANG_C2DD8D,Surface Outside Face Incident Solar Radiation Rate per Area [W/m2] !Monthly [Value,Min,Day,Hour,Minute,Max,Day,Hour,Minute]
802,9,Mir-OVERHANG_C2DD8D,Surface Outside Face Incident Solar Radiation Rate per Area [W/m2] !Monthly [Value,Min,Day,Hour,Minute,Max,Day,Hour,Minute]
803,9,OVERHANG_23DAAD,Surface Outside Face Incident Solar Radiation Rate per Area [W/m2] !Monthly [Value,Min,Day,Hour,Minute,Max,Day,Hour,Minute]
804,9,Mir-OVERHANG_23DAAD,Surface Outside Face Incident Solar Radiation Rate per Area [W/m2] !Monthly [Value,Min,Day,Hour,Minute,Max,Day,Hour,Minute]
805,9,OVERHANG_94BA8A,Surface Outside Face Incident Solar Radiation Rate per Area [W/m2] !Monthly [Value,Min,Day,Hour,Minute,Max,Day,Hour,Minute]
806,9,Mir-OVERHANG_94BA8A,Surface Outside Face Incident Solar Radiation Rate per Area [W/m2] !Monthly [Value,Min,Day,Hour,Minute,Max,Day,Hour,Minute]
807,9,OVERHANG_7BA5DE,Surface Outside Face Incident Solar Radiation Rate per Area [W/m2] !Monthly [Value,Min,Day,Hour,Minute,Max,Day,Hour,Minute]
808,9,Mir-OVERHANG_7BA5DE,Surface Outside Face Incident Solar Radiation Rate per Area [W/m2] !Monthly [Value,Min,Day,Hour,Minute,Max,Day,Hour,Minute]
809,9,OVERHANG_8BFBF7,Surface Outside Face Incident Solar Radiation Rate per Area [W/m2] !Monthly [Value,Min,Day,Hour,Minute,Max,Day,Hour,Minute]
810,9,Mir-OVERHANG_8BFBF7,Surface Outside Face Incident Solar Radiation Rate per Area [W/m2] !Monthly [Value,Min,Day,Hour,Minute,Max,Day,Hour,Minute]
811,9,OVERHANG_A50407,Surface Outside Face Incident Solar Radiation Rate per Area [W/m2] !Monthly [Value,Min,Day,Hour,Minute,Max,Day,Hour,Minute]
812,9,Mir-OVERHANG_A50407,Surface Outside Face Incident Solar Radiation Rate per Area [W/m2] !Monthly [Value,Min,Day,Hour,Minute,Max,Day,Hour,Minute]
813,9,OVERHANG_864E4C,Surface Outside Face Incident Solar Radiation Rate per Area [W/m2] !Monthly [Value,Min,Day,Hour,Minute,Max,Day,Hour,Minute]
814,9,Mir-OVERHANG_864E4C,Surface Outside Face Incident Solar Radiation Rate per Area [W/m2] !Monthly [Value,Min,Day,Hour,Minute,Max,Day,Hour,Minute]
815,9,OVERHANG_E26F8E,Surface Outside Face Incident Solar Radiation Rate per Area [W/m2] !Monthly [Value,Min,Day,Hour,Minute,Max,Day,Hour,Minute]
816,9,Mir-OVERHANG_E26F8E,Surface Outside Face Incident Solar Radiation Rate per Area [W/m2] !Monthly [Value,Min,Day,Hour,Minute,Max,Day,Hour,Minute]
817,9,OVERHANG_F7ED9D,Surface Outside Face Incident Solar Radiation Rate per Area [W/m2] !Monthly [Value,Min,Day,Hour,Minute,Max,Day,Hour,Minute]
818,9,Mir-OVERHANG_F7ED9D,Surface Outside Face Incident Solar Radiation Rate per Area [W/m2] !Monthly [Value,Min,Day,Hour,Minute,Max,Day,Hour,Minute]
819,9,OVERHANG_B1BC35,Surface Outside Face Incident Solar Radiation Rate per Area [W/m2] !Monthly [Value,Min,Day,Hour,Minute,Max,Day,Hour,Minute]
820,9,Mir-OVERHANG_B1BC35,Surface Outside Face Incident Solar Radiation Rate per Area [W/m2] !Monthly [Value,Min,Day,Hour,Minute,Max,Day,Hour,Minute]
821,9,OVERHANG_A79403,Surface Outside Face Incident Solar Radiation Rate per Area [W/m2] !Monthly [Value,Min,Day,Hour,Minute,Max,Day,Hour,Minute]
822,9,Mir-OVERHANG_A79403,Surface Outside Face Incident Solar Radiation Rate per Area [W/m2] !Monthly [Value,Min,Day,Hour,Minute,Max,Day,Hour,Minute]
823,9,OVERHANG_F8E398,Surface Outside Face Incident Solar Radiation Rate per Area [W/m2] !Monthly [Value,Min,Day,Hour,Minute,Max,Day,Hour,Minute]
824,9,Mir-OVERHANG_F8E398,Surface Outside Face Incident Solar Radiation Rate per Area [W/m2] !Monthly [Value,Min,Day,Hour,Minute,Max,Day,Hour,Minute]
825,9,OVERHANG_653A8A,Surface Outside Face Incident Solar Radiation Rate per Area [W/m2] !Monthly [Value,Min,Day,Hour,Minute,Max,Day,Hour,Minute]
826,9,Mir-OVERHANG_653A8A,Surface Outside Face Incident Solar Radiation Rate per Area [W/m2] !Monthly [Value,Min,Day,Hour,Minute,Max,Day,Hour,Minute]
827,9,OVERHANG_953913,Surface Outside Face Incident Solar Radiation Rate per Area [W/m2] !Monthly [Value,Min,Day,Hour,Minute,Max,Day,Hour,Minute]
828,9,Mir-OVERHANG_953913,Surface Outside Face Incident Solar Radiation Rate per Area [W/m2] !Monthly [Value,Min,Day,Hour,Minute,Max,Day,Hour,Minute]
829,9,OVERHANG_699E7C,Surface Outside Face Incident Solar Radiation Rate per Area [W/m2] !Monthly [Value,Min,Day,Hour,Minute,Max,Day,Hour,Minute]
830,9,Mir-OVERHANG_699E7C,Surface Outside Face Incident Solar Radiation Rate per Area [W/m2] !Monthly [Value,Min,Day,Hour,Minute,Max,Day,Hour,Minute]
831,9,OVERHANG_C5516B,Surface Outside Face Incident Solar Radiation Rate per Area [W/m2] !Monthly [Value,Min,Day,Hour,Minute,Max,Day,Hour,Minute]
832,9,Mir-OVERHANG_C5516B,Surface Outside Face Incident Solar Radiation Rate per Area [W/m2] !Monthly [Value,Min,Day,Hour,Minute,Max,Day,Hour,Minute]
833,9,OVERHANG_3134EF,Surface Outside Face Incident Solar Radiation Rate per Area [W/m2] !Monthly [Value,Min,Day,Hour,Minute,Max,Day,Hour,Minute]
834,9,Mir-OVERHANG_3134EF,Surface Outside Face Incident Solar Radiation Rate per Area [W/m2] !Monthly [Value,Min,Day,Hour,Minute,Max,Day,Hour,Minute]
835,9,OVERHANG_5877D0,Surface Outside Face Incident Solar Radiation Rate per Area [W/m2] !Monthly [Value,Min,Day,Hour,Minute,Max,Day,Hour,Minute]
836,9,Mir-OVERHANG_5877D0,Surface Outside Face Incident Solar Radiation Rate per Area [W/m2] !Monthly [Value,Min,Day,Hour,Minute,Max,Day,Hour,Minute]
837,9,OVERHANG_8C1A09,Surface Outside Face Incident Solar Radiation Rate per Area [W/m2] !Monthly [Value,Min,Day,Hour,Minute,Max,Day,Hour,Minute]
838,9,Mir-OVERHANG_8C1A09,Surface Outside Face Incident Solar Radiation Rate per Area [W/m2] !Monthly [Value,Min,Day,Hour,Minute,Max,Day,Hour,Minute]
839,9,OVERHANG_87FB35,Surface Outside Face Incident Solar Radiation Rate per Area [W/m2] !Monthly [Value,Min,Day,Hour,Minute,Max,Day,Hour,Minute]
840,9,Mir-OVERHANG_87FB35,Surface Outside Face Incident Solar Radiation Rate per Area [W/m2] !Monthly [Value,Min,Day,Hour,Minute,Max,Day,Hour,Minute]
841,9,OVERHANG_8A7124,Surface Outside Face Incident Solar Radiation Rate per Area [W/m2] !Monthly [Value,Min,Day,Hour,Minute,Max,Day,Hour,Minute]
842,9,Mir-OVERHANG_8A7124,Surface Outside Face Incident Solar Radiation Rate per Area [W/m2] !Monthly [Value,Min,Day,Hour,Minute,Max,Day,Hour,Minute]
843,9,OVERHANG_AAA4E4,Surface Outside Face Incident Solar Radiation Rate per Area [W/m2] !Monthly [Value,Min,Day,Hour,Minute,Max,Day,Hour,Minute]
844,9,Mir-OVERHANG_AAA4E4,Surface Outside Face Incident Solar Radiation Rate per Area [W/m2] !Monthly [Value,Min,Day,Hour,Minute,Max,Day,Hour,Minute]
845,9,OVERHANG_BB81B1,Surface Outside Face Incident Solar Radiation Rate per Area [W/m2] !Monthly [Value,Min,Day,Hour,Minute,Max,Day,Hour,Minute]
846,9,Mir-OVERHANG_BB81B1,Surface Outside Face Incident Solar Radiation Rate per Area [W/m2] !Monthly [Value,Min,Day,Hour,Minute,Max,Day,Hour,Minute]
847,9,OVERHANG_6A1CD1,Surface Outside Face Incident Solar Radiation Rate per Area [W/m2] !Monthly [Value,Min,Day,Hour,Minute,Max,Day,Hour,Minute]
848,9,Mir-OVERHANG_6A1CD1,Surface Outside Face Incident Solar Radiation Rate per Area [W/m2] !Monthly [Value,Min,Day,Hour,Minute,Max,Day,Hour,Minute]
849,9,OVERHANG_19CB71,Surface Outside Face Incident Solar Radiation Rate per Area [W/m2] !Monthly [Value,Min,Day,Hour,Minute,Max,Day,Hour,Minute]
850,9,Mir-OVERHANG_19CB71,Surface Outside Face Incident Solar Radiation Rate per Area [W/m2] !Monthly [Value,Min,Day,Hour,Minute,Max,Day,Hour,Minute]
851,9,OVERHANG_18F863,Surface Outside Face Incident Solar Radiation Rate per Area [W/m2] !Monthly [Value,Min,Day,Hour,Minute,Max,Day,Hour,Minute]
852,9,Mir-OVERHANG_18F863,Surface Outside Face Incident Solar Radiation Rate per Area [W/m2] !Monthly [Value,Min,Day,Hour,Minute,Max,Day,Hour,Minute]
853,9,OVERHANG_E42E53,Surface Outside Face Incident Solar Radiation Rate per Area [W/m2] !Monthly [Value,Min,Day,Hour,Minute,Max,Day,Hour,Minute]
854,9,Mir-OVERHANG_E42E53,Surface Outside Face Incident Solar Radiation Rate per Area [W/m2] !Monthly [Value,Min,Day,Hour,Minute,Max,Day,Hour,Minute]
855,9,OVERHANG_C2FD0D,Surface Outside Face Incident Solar Radiation Rate per Area [W/m2] !Monthly [Value,Min,Day,Hour,Minute,Max,Day,Hour,Minute]
856,9,Mir-OVERHANG_C2FD0D,Surface Outside Face Incident Solar Radiation Rate per Area [W/m2] !Monthly [Value,Min,Day,Hour,Minute,Max,Day,Hour,Minute]
857,9,OVERHANG_6C2720,Surface Outside Face Incident Solar Radiation Rate per Area [W/m2] !Monthly [Value,Min,Day,Hour,Minute,Max,Day,Hour,Minute]
858,9,Mir-OVERHANG_6C2720,Surface Outside Face Incident Solar Radiation Rate per Area [W/m2] !Monthly [Value,Min,Day,Hour,Minute,Max,Day,Hour,Minute]
859,9,OVERHANG_A2960A,Surface Outside Face Incident Solar Radiation Rate per Area [W/m2] !Monthly [Value,Min,Day,Hour,Minute,Max,Day,Hour,Minute]
860,9,Mir-OVERHANG_A2960A,Surface Outside Face Incident Solar Radiation Rate per Area [W/m2] !Monthly [Value,Min,Day,Hour,Minute,Max,Day,Hour,Minute]
861,9,OVERHANG_CDF435,Surface Outside Face Incident Solar Radiation Rate per Area [W/m2] !Monthly [Value,Min,Day,Hour,Minute,Max,Day,Hour,Minute]
862,9,Mir-OVERHANG_CDF435,Surface Outside Face Incident Solar Radiation Rate per Area [W/m2] !Monthly [Value,Min,Day,Hour,Minute,Max,Day,Hour,Minute]
863,9,OVERHANG_8580C7,Surface Outside Face Incident Solar Radiation Rate per Area [W/m2] !Monthly [Value,Min,Day,Hour,Minute,Max,Day,Hour,Minute]
864,9,Mir-OVERHANG_8580C7,Surface Outside Face Incident Solar Radiation Rate per Area [W/m2] !Monthly [Value,Min,Day,Hour,Minute,Max,Day,Hour,Minute]
865,9,OVERHANG_A6C9BD,Surface Outside Face Incident Solar Radiation Rate per Area [W/m2] !Monthly [Value,Min,Day,Hour,Minute,Max,Day,Hour,Minute]
866,9,Mir-OVERHANG_A6C9BD,Surface Outside Face Incident Solar Radiation Rate per Area [W/m2] !Monthly [Value,Min,Day,Hour,Minute,Max,Day,Hour,Minute]
867,9,OVERHANG_B4D7D4,Surface Outside Face Incident Solar Radiation Rate per Area [W/m2] !Monthly [Value,Min,Day,Hour,Minute,Max,Day,Hour,Minute]
868,9,Mir-OVERHANG_B4D7D4,Surface Outside Face Incident Solar Radiation Rate per Area [W/m2] !Monthly [Value,Min,Day,Hour,Minute,Max,Day,Hour,Minute]
869,9,OVERHANG_1FB167,Surface Outside Face Incident Solar Radiation Rate per Area [W/m2] !Monthly [Value,Min,Day,Hour,Minute,Max,Day,Hour,Minute]
870,9,Mir-OVERHANG_1FB167,Surface Outside Face Incident Solar Radiation Rate per Area [W/m2] !Monthly [Value,Min,Day,Hour,Minute,Max,Day,Hour,Minute]
871,9,OVERHANG_4B0C75,Surface Outside Face Incident Solar Radiation Rate per Area [W/m2] !Monthly [Value,Min,Day,Hour,Minute,Max,Day,Hour,Minute]
872,9,Mir-OVERHANG_4B0C75,Surface Outside Face Incident Solar Radiation Rate per Area [W/m2] !Monthly [Value,Min,Day,Hour,Minute,Max,Day,Hour,Minute]
873,9,OVERHANG_EC5B03,Surface Outside Face Incident Solar Radiation Rate per Area [W/m2] !Monthly [Value,Min,Day,Hour,Minute,Max,Day,Hour,Minute]
874,9,Mir-OVERHANG_EC5B03,Surface Outside Face Incident Solar Radiation Rate per Area [W/m2] !Monthly [Value,Min,Day,Hour,Minute,Max,Day,Hour,Minute]
875,9,OVERHANG_CDCD3D,Surface Outside Face Incident Solar Radiation Rate per Area [W/m2] !Monthly [Value,Min,Day,Hour,Minute,Max,Day,Hour,Minute]
876,9,Mir-OVERHANG_CDCD3D,Surface Outside Face Incident Solar Radiation Rate per Area [W/m2] !Monthly [Value,Min,Day,Hour,Minute,Max,Day,Hour,Minute]
877,9,OVERHANG_210899,Surface Outside Face Incident Solar Radiation Rate per Area [W/m2] !Monthly [Value,Min,Day,Hour,Minute,Max,Day,Hour,Minute]
878,9,Mir-OVERHANG_210899,Surface Outside Face Incident Solar Radiation Rate per Area [W/m2] !Monthly [Value,Min,Day,Hour,Minute,Max,Day,Hour,Minute]
879,9,A15EF2,Surface Outside Face Incident Solar Radiation Rate per Area [W/m2] !Monthly [Value,Min,Day,Hour,Minute,Max,Day,Hour,Minute]
880,9,F0171B,Surface Outside Face Incident Solar Radiation Rate per Area [W/m2] !Monthly [Value,Min,Day,Hour,Minute,Max,Day,Hour,Minute]
881,9,E34B53,Surface Outside Face Incident Solar Radiation Rate per Area [W/m2] !Monthly [Value,Min,Day,Hour,Minute,Max,Day,Hour,Minute]
882,9,EB381E,Surface Outside Face Incident Solar Radiation Rate per Area [W/m2] !Monthly [Value,Min,Day,Hour,Minute,Max,Day,Hour,Minute]
883,9,4BBE32,Surface Outside Face Incident Solar Radiation Rate per Area [W/m2] !Monthly [Value,Min,Day,Hour,Minute,Max,Day,Hour,Minute]
884,9,92B573,Surface Outside Face Incident Solar Radiation Rate per Area [W/m2] !Monthly [Value,Min,Day,Hour,Minute,Max,Day,Hour,Minute]
885,9,127502,Surface Outside Face Incident Solar Radiation Rate per Area [W/m2] !Monthly [Value,Min,Day,Hour,Minute,Max,Day,Hour,Minute]
886,9,1432F0,Surface Outside Face Incident Solar Radiation Rate per Area [W/m2] !Monthly [Value,Min,Day,Hour,Minute,Max,Day,Hour,Minute]
887,9,9B19D6,Surface Outside Face Incident Solar Radiation Rate per Area [W/m2] !Monthly [Value,Min,Day,Hour,Minute,Max,Day,Hour,Minute]
888,9,9BDED2,Surface Outside Face Incident Solar Radiation Rate per Area [W/m2] !Monthly [Value,Min,Day,Hour,Minute,Max,Day,Hour,Minute]
889,9,EB9560,Surface Outside Face Incident Solar Radiation Rate per Area [W/m2] !Monthly [Value,Min,Day,Hour,Minute,Max,Day,Hour,Minute]
890,9,49FCED,Surface Outside Face Incident Solar Radiation Rate per Area [W/m2] !Monthly [Value,Min,Day,Hour,Minute,Max,Day,Hour,Minute]
891,9,DFBD24,Surface Outside Face Incident Solar Radiation Rate per Area [W/m2] !Monthly [Value,Min,Day,Hour,Minute,Max,Day,Hour,Minute]
892,9,A8D3AE,Surface Outside Face Incident Solar Radiation Rate per Area [W/m2] !Monthly [Value,Min,Day,Hour,Minute,Max,Day,Hour,Minute]
893,9,965308,Surface Outside Face Incident Solar Radiation Rate per Area [W/m2] !Monthly [Value,Min,Day,Hour,Minute,Max,Day,Hour,Minute]
894,9,7807BB,Surface Outside Face Incident Solar Radiation Rate per Area [W/m2] !Monthly [Value,Min,Day,Hour,Minute,Max,Day,Hour,Minute]
895,9,17D3BF,Surface Outside Face Incident Solar Radiation Rate per Area [W/m2] !Monthly [Value,Min,Day,Hour,Minute,Max,Day,Hour,Minute]
896,9,E9194B,Surface Outside Face Incident Solar Radiation Rate per Area [W/m2] !Monthly [Value,Min,Day,Hour,Minute,Max,Day,Hour,Minute]
897,9,DC887A,Surface Outside Face Incident Solar Radiation Rate per Area [W/m2] !Monthly [Value,Min,Day,Hour,Minute,Max,Day,Hour,Minute]
898,9,FF7408,Surface Outside Face Incident Solar Radiation Rate per Area [W/m2] !Monthly [Value,Min,Day,Hour,Minute,Max,Day,Hour,Minute]
899,9,42F015,Surface Outside Face Incident Solar Radiation Rate per Area [W/m2] !Monthly [Value,Min,Day,Hour,Minute,Max,Day,Hour,Minute]
900,9,5C02CA,Surface Outside Face Incident Solar Radiation Rate per Area [W/m2] !Monthly [Value,Min,Day,Hour,Minute,Max,Day,Hour,Minute]
901,9,EFE5C8,Surface Outside Face Incident Solar Radiation Rate per Area [W/m2] !Monthly [Value,Min,Day,Hour,Minute,Max,Day,Hour,Minute]
902,9,BD6CAC,Surface Outside Face Incident Solar Radiation Rate per Area [W/m2] !Monthly [Value,Min,Day,Hour,Minute,Max,Day,Hour,Minute]
903,9,F6C20E,Surface Outside Face Incident Solar Radiation Rate per Area [W/m2] !Monthly [Value,Min,Day,Hour,Minute,Max,Day,Hour,Minute]
904,9,C6D9BB,Surface Outside Face Incident Solar Radiation Rate per Area [W/m2] !Monthly [Value,Min,Day,Hour,Minute,Max,Day,Hour,Minute]
905,9,589F6F,Surface Outside Face Incident Solar Radiation Rate per Area [W/m2] !Monthly [Value,Min,Day,Hour,Minute,Max,Day,Hour,Minute]
906,9,555196,Surface Outside Face Incident Solar Radiation Rate per Area [W/m2] !Monthly [Value,Min,Day,Hour,Minute,Max,Day,Hour,Minute]
907,9,C6AAEF,Surface Outside Face Incident Solar Radiation Rate per Area [W/m2] !Monthly [Value,Min,Day,Hour,Minute,Max,Day,Hour,Minute]
908,9,D0B56C,Surface Outside Face Incident Solar Radiation Rate per Area [W/m2] !Monthly [Value,Min,Day,Hour,Minute,Max,Day,Hour,Minute]
909,9,13A266,Surface Outside Face Incident Solar Radiation Rate per Area [W/m2] !Monthly [Value,Min,Day,Hour,Minute,Max,Day,Hour,Minute]
910,9,3CC912,Surface Outside Face Incident Solar Radiation Rate per Area [W/m2] !Monthly [Value,Min,Day,Hour,Minute,Max,Day,Hour,Minute]
911,9,EE77B9,Surface Outside Face Incident Solar Radiation Rate per Area [W/m2] !Monthly [Value,Min,Day,Hour,Minute,Max,Day,Hour,Minute]
912,9,DAB157,Surface Outside Face Incident Solar Radiation Rate per Area [W/m2] !Monthly [Value,Min,Day,Hour,Minute,Max,Day,Hour,Minute]
913,9,B56771,Surface Outside Face Incident Solar Radiation Rate per Area [W/m2] !Monthly [Value,Min,Day,Hour,Minute,Max,Day,Hour,Minute]
914,9,8ECBCC,Surface Outside Face Incident Solar Radiation Rate per Area [W/m2] !Monthly [Value,Min,Day,Hour,Minute,Max,Day,Hour,Minute]
915,9,421611,Surface Outside Face Incident Solar Radiation Rate per Area [W/m2] !Monthly [Value,Min,Day,Hour,Minute,Max,Day,Hour,Minute]
916,9,A5E1A8,Surface Outside Face Incident Solar Radiation Rate per Area [W/m2] !Monthly [Value,Min,Day,Hour,Minute,Max,Day,Hour,Minute]
917,9,3B958D,Surface Outside Face Incident Solar Radiation Rate per Area [W/m2] !Monthly [Value,Min,Day,Hour,Minute,Max,Day,Hour,Minute]
918,9,EF34E7,Surface Outside Face Incident Solar Radiation Rate per Area [W/m2] !Monthly [Value,Min,Day,Hour,Minute,Max,Day,Hour,Minute]
919,9,1B0191,Surface Outside Face Incident Solar Radiation Rate per Area [W/m2] !Monthly [Value,Min,Day,Hour,Minute,Max,Day,Hour,Minute]
920,9,D919F4,Surface Outside Face Incident Solar Radiation Rate per Area [W/m2] !Monthly [Value,Min,Day,Hour,Minute,Max,Day,Hour,Minute]
921,9,118ABE,Surface Outside Face Incident Solar Radiation Rate per Area [W/m2] !Monthly [Value,Min,Day,Hour,Minute,Max,Day,Hour,Minute]
922,9,93BADA,Surface Outside Face Incident Solar Radiation Rate per Area [W/m2] !Monthly [Value,Min,Day,Hour,Minute,Max,Day,Hour,Minute]
923,9,3C0ECF,Surface Outside Face Incident Solar Radiation Rate per Area [W/m2] !Monthly [Value,Min,Day,Hour,Minute,Max,Day,Hour,Minute]
924,9,A11C91,Surface Outside Face Incident Solar Radiation Rate per Area [W/m2] !Monthly [Value,Min,Day,Hour,Minute,Max,Day,Hour,Minute]
925,9,8C7F16,Surface Outside Face Incident Solar Radiation Rate per Area [W/m2] !Monthly [Value,Min,Day,Hour,Minute,Max,Day,Hour,Minute]
926,9,E012F6,Surface Outside Face Incident Solar Radiation Rate per Area [W/m2] !Monthly [Value,Min,Day,Hour,Minute,Max,Day,Hour,Minute]
927,9,37ACDC,Surface Outside Face Incident Solar Radiation Rate per Area [W/m2] !Monthly [Value,Min,Day,Hour,Minute,Max,Day,Hour,Minute]
928,9,C7CB71,Surface Outside Face Incident Solar Radiation Rate per Area [W/m2] !Monthly [Value,Min,Day,Hour,Minute,Max,Day,Hour,Minute]
929,9,BB530D,Surface Outside Face Incident Solar Radiation Rate per Area [W/m2] !Monthly [Value,Min,Day,Hour,Minute,Max,Day,Hour,Minute]
930,9,825422,Surface Outside Face Incident Solar Radiation Rate per Area [W/m2] !Monthly [Value,Min,Day,Hour,Minute,Max,Day,Hour,Minute]
931,9,656C49,Surface Outside Face Incident Solar Radiation Rate per Area [W/m2] !Monthly [Value,Min,Day,Hour,Minute,Max,Day,Hour,Minute]
932,9,1BFB89,Surface Outside Face Incident Solar Radiation Rate per Area [W/m2] !Monthly [Value,Min,Day,Hour,Minute,Max,Day,Hour,Minute]
933,9,9DCC37,Surface Outside Face Incident Solar Radiation Rate per Area [W/m2] !Monthly [Value,Min,Day,Hour,Minute,Max,Day,Hour,Minute]
934,9,70C911,Surface Outside Face Incident Solar Radiation Rate per Area [W/m2] !Monthly [Value,Min,Day,Hour,Minute,Max,Day,Hour,Minute]
935,9,F1C0E5,Surface Outside Face Incident Solar Radiation Rate per Area [W/m2] !Monthly [Value,Min,Day,Hour,Minute,Max,Day,Hour,Minute]
936,9,C55811,Surface Outside Face Incident Solar Radiation Rate per Area [W/m2] !Monthly [Value,Min,Day,Hour,Minute,Max,Day,Hour,Minute]