Program Version,EnergyPlus, Version 9.3.0-baff08990c, YMD=2025.12.08 12:12
1,5,Environment Title[],Latitude[deg],Longitude[deg],Time Zone[],Elevation[m]
2,8,Day of Simulation[],Month[],Day of Month[],DST Indicator[1=yes 0=no],Hour[],StartMinute[],EndMinute[],DayType
3,5,Cumulative Day of Simulation[],Month[],Day of Month[],DST Indicator[1=yes 0=no],DayType  ! When Daily Meters Requested
4,2,Cumulative Days of Simulation[],Month[]  ! When Monthly Meters Requested
5,1,Cumulative Days of Simulation[] ! When Run Period Meters Requested
6,1,Calendar Year of Simulation[] ! When Annual Meters Requested
1405,7,Cooling:EnergyTransfer [J] !Daily [Value,Min,Hour,Minute,Max,Hour,Minute]
46,7,InteriorLights:Electricity [J] !Daily [Value,Min,Hour,Minute,Max,Hour,Minute]
458,7,InteriorEquipment:Electricity [J] !Daily [Value,Min,Hour,Minute,Max,Hour,Minute]
End of Data Dictionary
1,JUNE2015,   1.37, 103.98,   8.00,  16.00
3,1, 6, 1, 0,Monday
46,332640000.0,0.0, 1, 2,2059200.0, 7, 2
458,2556338400.0,1259280.0, 1, 2,39857400.0, 8, 2
1405,3747548740.435744,0.0, 7, 2,79722462.58843203,24,32
3,2, 6, 2, 0,Tuesday
46,332640000.0,0.0, 1, 2,2059200.0, 7, 2
458,2556338400.0,1259280.0, 1, 2,39857400.0, 8, 2
1405,3704932527.156692,0.0, 7, 2,77562539.16377363,24,32
3,3, 6, 3, 0,Wednesday
46,332640000.0,0.0, 1, 2,2059200.0, 7, 2
458,2556338400.0,1259280.0, 1, 2,39857400.0, 8, 2
1405,3770062293.797673,0.0, 7, 2,80139404.18221374,24,32
3,4, 6, 4, 0,Thursday
46,332640000.0,0.0, 1, 2,2059200.0, 7, 2
458,2556338400.0,1259280.0, 1, 2,39857400.0, 8, 2
1405,3809315409.4943335,0.0, 7, 2,64528147.87132581,24,32
3,5, 6, 5, 0,Friday
46,332640000.0,0.0, 1, 2,2059200.0, 7, 2
458,2556338400.0,1259280.0, 1, 2,39857400.0, 8, 2
1405,3551760080.584738,0.0, 7, 2,78535113.27307409,24,32
3,6, 6, 6, 0,Saturday
46,281160000.0,0.0, 1, 2,2059200.0, 7,52
458,3042646200.0,1259280.0, 1, 2,31256280.0, 7,52
1405,3400702062.551917,0.0, 7, 2,74263442.51785515,24,32
3,7, 6, 7, 0,Sunday
46,281160000.0,0.0, 1, 2,2059200.0, 7,52
458,3042646200.0,1259280.0, 1, 2,31256280.0, 7,52
1405,2746901341.068046,0.0, 7, 2,67406971.14514072,24,32
3,8, 6, 8, 0,Monday
46,332640000.0,0.0, 1, 2,2059200.0, 7, 2
458,2556338400.0,1259280.0, 1, 2,39857400.0, 8, 2
1405,2522127167.617289,0.0, 7, 2,75644861.268306,24,32
3,9, 6, 9, 0,Tuesday
46,332640000.0,0.0, 1, 2,2059200.0, 7, 2
458,2556338400.0,1259280.0, 1, 2,39857400.0, 8, 2
1405,2686422572.570779,0.0, 7, 2,63458638.59565498,24,32
3,10, 6,10, 0,Wednesday
46,332640000.0,0.0, 1, 2,2059200.0, 7, 2
458,2556338400.0,1259280.0, 1, 2,39857400.0, 8, 2
1405,2603038939.35828,0.0, 7, 2,77985855.60397232,24,32
3,11, 6,11, 0,Thursday
46,332640000.0,0.0, 1, 2,2059200.0, 7, 2
458,2556338400.0,1259280.0, 1, 2,39857400.0, 8, 2
1405,3292926966.6096017,0.0, 7, 2,60200895.13069472,24,32
3,12, 6,12, 0,Friday
46,332640000.0,0.0, 1, 2,2059200.0, 7, 2
458,2556338400.0,1259280.0, 1, 2,39857400.0, 8, 2
1405,2676850169.6206419,0.0, 7, 2,40380395.399638939,24,32
3,13, 6,13, 0,Saturday
46,281160000.0,0.0, 1, 2,2059200.0, 7,52
458,3042646200.0,1259280.0, 1, 2,31256280.0, 7,52
1405,1852958219.4648712,0.0, 7, 2,74898860.35180554,24,32
3,14, 6,14, 0,Sunday
46,281160000.0,0.0, 1, 2,2059200.0, 7,52
458,3042646200.0,1259280.0, 1, 2,31256280.0, 7,52
1405,2393563196.1623289,0.0, 7, 2,48817706.65345523,24,32
3,15, 6,15, 0,Monday
46,332640000.0,0.0, 1, 2,2059200.0, 7, 2
458,2556338400.0,1259280.0, 1, 2,39857400.0, 8, 2
1405,1688679379.4147933,0.0, 7, 2,69046375.08092612,24,32
3,16, 6,16, 0,Tuesday
46,332640000.0,0.0, 1, 2,2059200.0, 7, 2
458,2556338400.0,1259280.0, 1, 2,39857400.0, 8, 2
1405,2052504310.454024,0.0, 7, 2,65496203.63756335,24,32
3,17, 6,17, 0,Wednesday
46,332640000.0,0.0, 1, 2,2059200.0, 7, 2
458,2556338400.0,1259280.0, 1, 2,39857400.0, 8, 2
1405,2039277673.0915018,0.0, 7, 2,63978361.41181578,24,32
3,18, 6,18, 0,Thursday
46,332640000.0,0.0, 1, 2,2059200.0, 7, 2
458,2556338400.0,1259280.0, 1, 2,39857400.0, 8, 2
1405,2301761826.8933017,0.0, 7, 2,71644837.15916477,24,32
3,19, 6,19, 0,Friday
46,332640000.0,0.0, 1, 2,2059200.0, 7, 2
458,2556338400.0,1259280.0, 1, 2,39857400.0, 8, 2
1405,3283947720.460066,0.0, 7, 2,75203952.64465747,24,32
3,20, 6,20, 0,Saturday
46,281160000.0,0.0, 1, 2,2059200.0, 7,52
458,3042646200.0,1259280.0, 1, 2,31256280.0, 7,52
1405,3198957575.491198,0.0, 7, 2,82290772.62122433,24,32
3,21, 6,21, 0,Sunday
46,281160000.0,0.0, 1, 2,2059200.0, 7,52
458,3042646200.0,1259280.0, 1, 2,31256280.0, 7,52
1405,3605831146.1267545,0.0, 7, 2,80947237.96817257,24,32
3,22, 6,22, 0,Monday
46,332640000.0,0.0, 1, 2,2059200.0, 7, 2
458,2556338400.0,1259280.0, 1, 2,39857400.0, 8, 2
1405,3772666334.852723,0.0, 7, 2,87074802.64680586,24,32
3,23, 6,23, 0,Tuesday
46,332640000.0,0.0, 1, 2,2059200.0, 7, 2
458,2556338400.0,1259280.0, 1, 2,39857400.0, 8, 2
1405,4085294331.911373,0.0, 7, 2,81466564.57916951,24,32
3,24, 6,24, 0,Wednesday
46,332640000.0,0.0, 1, 2,2059200.0, 7, 2
458,2556338400.0,1259280.0, 1, 2,39857400.0, 8, 2
1405,3930243796.051568,0.0, 7, 2,76621393.102782,24,32
3,25, 6,25, 0,Thursday
46,332640000.0,0.0, 1, 2,2059200.0, 7, 2
458,2556338400.0,1259280.0, 1, 2,39857400.0, 8, 2
1405,3537960059.397305,0.0, 7, 2,78278024.79723329,24,32
3,26, 6,26, 0,Friday
46,332640000.0,0.0, 1, 2,2059200.0, 7, 2
458,2556338400.0,1259280.0, 1, 2,39857400.0, 8, 2
1405,3494706373.276318,0.0, 7, 2,76476581.68931429,24,32
3,27, 6,27, 0,Saturday
46,281160000.0,0.0, 1, 2,2059200.0, 7,52
458,3042646200.0,1259280.0, 1, 2,31256280.0, 7,52
1405,3508740849.468027,0.0, 7, 2,81338414.73685755,24,32
3,28, 6,28, 0,Sunday
46,281160000.0,0.0, 1, 2,2059200.0, 7,52
458,3042646200.0,1259280.0, 1, 2,31256280.0, 7,52
1405,3852782126.525568,0.0, 7, 2,78644142.90660438,24,32
3,29, 6,29, 0,Monday
46,332640000.0,0.0, 1, 2,2059200.0, 7, 2
458,2556338400.0,1259280.0, 1, 2,39857400.0, 8, 2
1405,3757666207.5079729,0.0, 7, 2,80323398.11478351,24,32
3,30, 6,30, 0,Tuesday
46,332640000.0,0.0, 1, 2,2059200.0, 7, 2
458,2556338400.0,1259280.0, 1, 2,39857400.0, 8, 2
1405,3997846650.003018,0.0, 7, 2,79468219.60972706,24,32
End of Data
 Number of Records Written=          90
